/*--------------------------------*- C++ -*----------------------------------*\
| =========                 |                                                 |
| \\      /  F ield         | OpenFOAM: The Open Source CFD Toolbox           |
|  \\    /   O peration     | Version:  3.0.0                                 |
|   \\  /    A nd           | Web:      www.OpenFOAM.org                      |
|    \\/     M anipulation  |                                                 |
\*---------------------------------------------------------------------------*/
FoamFile
{
    version     2.0;
    format      ascii;
    class       surfaceScalarField;
    location    "0.0002";
    object      phi;
}
// * * * * * * * * * * * * * * * * * * * * * * * * * * * * * * * * * * * * * //

dimensions      [1 0 -1 0 0 0 0];

internalField   nonuniform List<scalar> 
1890
(
3.1225e-17
-2.42861e-17
9.02056e-17
-2.94903e-17
6.59195e-17
-3.64292e-17
6.93889e-17
-3.29597e-17
5.20417e-17
-4.68375e-17
1.56125e-16
-2.25514e-17
7.56339e-16
-3.81639e-17
4.81906e-15
1.21431e-17
2.9695e-14
-9.19403e-17
1.77604e-13
-3.29597e-17
1.05347e-12
-5.55112e-17
5.83917e-12
1.35308e-16
2.91769e-11
5.84602e-16
1.30877e-10
1.85268e-15
5.49219e-10
4.87457e-16
2.22117e-09
1.25247e-15
8.71934e-09
1.39298e-15
3.32566e-08
-1.65146e-15
1.23179e-07
-3.09128e-15
4.42672e-07
1.99615e-14
1.542e-06
-3.87641e-14
5.20106e-06
7.20674e-14
1.69679e-05
-1.13704e-13
5.34737e-05
1.63203e-13
0.000162435
-2.42242e-13
0.000469465
4.26202e-13
0.00122962
-7.32582e-13
0.00210209
7.20346e-13
0.00277157
-4.92438e-13
0.00345885
1.85395e-13
0.00415953
8.76261e-14
0.00486255
4.69425e-14
0.00555176
4.17704e-14
0.00621444
1.11768e-14
0.00684227
-5.53125e-14
0.00743001
-1.94384e-14
0.00797456
-1.12692e-13
0.00847437
-7.32296e-14
0.00892897
-1.45287e-13
0.00933866
-6.42368e-15
0.00970428
-4.60977e-13
0.0100271
6.55124e-13
0.0103086
-1.18711e-12
0.0105503
7.03743e-13
0.0107541
-1.48277e-13
0.0109213
6.91431e-13
0.0110537
-3.15578e-12
0.0111529
4.13227e-12
0.0112217
-1.60598e-12
0.0112632
1.75069e-12
0.0112844
-4.35826e-12
0.0112896
2.44021e-12
0.0112872
5.25864e-12
0.0112751
-6.89303e-13
0.0112594
-5.03226e-12
0.0112409
-2.33597e-13
0.0112039
5.38325e-13
0.0111605
6.46421e-13
0.0110848
2.9904e-14
0.0109841
-1.3928e-12
0.0108561
-1.64162e-12
0.0106696
-3.78026e-12
0.0104502
-4.38366e-12
0.010187
-3.12516e-12
0.00989121
-2.95172e-12
0.00957187
-2.80917e-12
0.00924448
-2.88433e-12
0.00891789
-3.02848e-12
0.00861266
-2.70557e-12
0.00833756
-2.35597e-12
0.00809653
-1.01503e-12
0.00789193
2.24281e-13
0.00772392
1.35217e-12
0.00759117
3.4167e-12
0.00749138
3.89662e-12
0.00741979
4.10817e-12
0.0073669
4.42249e-12
0.00732674
5.51278e-12
0.00728328
5.55412e-12
0.00719968
5.68984e-12
0.00694208
3.88337e-12
0.00605864
4.07797e-12
0.00293318
5.77988e-12
0.000691321
1.87518e-12
0.000133724
4.71067e-13
1.7805e-05
2.15552e-14
1.94637e-06
-2.38431e-14
2.05346e-07
-1.48774e-15
2.16158e-08
5.91974e-17
2.27436e-09
-3.1225e-17
2.39188e-10
7.00395e-17
2.50633e-11
6.33174e-17
2.565e-12
3.55618e-17
2.45007e-13
1.92988e-17
2.19096e-14
4.55365e-18
1.94311e-15
3.25261e-18
1.72822e-16
2.1684e-18
1.38778e-17
7.37257e-18
-2.60209e-18
6.07153e-18
8.23994e-18
1.35308e-16
-5.55112e-17
5.20417e-17
-4.68375e-17
7.28584e-17
-6.93889e-17
5.55112e-17
-3.98986e-17
5.89806e-17
-7.97973e-17
1.04083e-16
-4.85723e-17
8.39606e-16
-3.64292e-17
4.88151e-15
-6.07153e-17
2.94036e-14
-4.51028e-17
1.77469e-13
-3.81639e-17
1.05374e-12
3.46945e-17
5.84082e-12
1.02349e-16
2.91808e-11
3.81639e-16
1.30882e-10
4.19803e-16
5.49221e-10
-2.44769e-15
2.22117e-09
4.30558e-15
8.71934e-09
-2.19789e-15
3.32566e-08
-1.35482e-15
1.23179e-07
9.59302e-16
4.42672e-07
3.492e-15
1.542e-06
-1.07206e-15
5.20106e-06
2.39912e-15
1.69679e-05
-1.11057e-14
5.34737e-05
3.6849e-14
0.000162435
-7.22269e-14
0.000469465
1.68048e-13
0.00122962
-2.55452e-13
0.00210209
3.15843e-13
0.00277157
-3.73769e-13
0.00345885
1.95644e-13
0.00415953
1.18335e-13
0.00486255
4.71281e-14
0.00555176
3.7137e-14
0.00621444
-2.12573e-14
0.00684227
2.50329e-14
0.00743001
-7.0657e-14
0.00797456
6.52256e-16
0.00847437
-8.47968e-14
0.00892897
4.2067e-16
0.00933866
1.19228e-14
0.00970428
-1.81982e-13
0.0100271
5.21806e-13
0.0103086
-8.84058e-13
0.0105503
1.14528e-12
0.0107541
-4.66301e-13
0.0109213
7.19247e-13
0.0110537
-8.1418e-13
0.0111529
1.99696e-12
0.0112217
-5.71982e-15
0.0112632
-5.55285e-15
0.0112844
-1.2746e-12
0.0112896
-1.73963e-12
0.0112872
9.84613e-12
0.0112751
-5.54191e-12
0.0112594
-5.34026e-13
0.0112409
6.69751e-14
0.0112039
1.82572e-12
0.0111605
1.49761e-12
0.0110848
1.07765e-13
0.0109841
-1.87146e-12
0.0108561
-1.76206e-12
0.0106696
-3.30801e-12
0.0104502
-3.64255e-12
0.010187
-8.56877e-13
0.00989121
-1.12839e-12
0.00957187
-9.1001e-13
0.00924448
-8.79303e-13
0.00891789
-9.08496e-13
0.00861266
-2.81958e-13
0.00833756
1.05905e-13
0.00809653
1.3085e-12
0.00789193
2.48103e-12
0.00772392
3.11327e-12
0.00759117
3.86167e-12
0.00749138
4.53741e-12
0.00741979
4.51909e-12
0.0073669
4.3268e-12
0.00732674
3.99931e-12
0.00728328
5.25055e-12
0.00719968
5.4575e-12
0.00694208
4.08942e-12
0.00605864
3.60177e-12
0.00293318
-4.27026e-12
0.000691321
7.11497e-13
0.000133724
1.58388e-13
1.7805e-05
-8.62374e-16
1.94637e-06
-2.4568e-16
2.05346e-07
7.70868e-16
2.16158e-08
1.15576e-16
2.27436e-09
9.56266e-17
2.39188e-10
5.33427e-17
2.50632e-11
2.42861e-17
2.56493e-12
-3.90313e-18
2.44997e-13
8.89046e-18
2.19195e-14
-7.80626e-18
1.94571e-15
4.33681e-19
1.71521e-16
-4.11997e-18
2.25514e-17
8.67362e-19
3.68629e-18
-3.03577e-18
-3.46945e-18
-6.93889e-18
-6.59195e-17
1.73472e-17
0
-1.73472e-17
-8.32667e-17
6.59195e-17
8.67362e-18
1.21431e-16
-8.32667e-17
8.67362e-17
-3.81639e-17
8.08381e-16
-1.12757e-16
4.84682e-15
-3.98986e-17
2.96083e-14
-4.33681e-17
1.7757e-13
3.81639e-17
1.05432e-12
-3.46945e-17
5.84246e-12
-1.73472e-16
2.91848e-11
-1.12237e-15
1.30883e-10
-1.02522e-15
5.49217e-10
-3.46945e-16
2.22118e-09
-2.31412e-15
8.71933e-09
4.00721e-16
3.32566e-08
1.31145e-15
1.23179e-07
3.52322e-15
4.42672e-07
-1.73091e-14
1.542e-06
4.05769e-14
5.20106e-06
-7.40415e-14
1.69679e-05
1.00196e-13
5.34737e-05
-9.85392e-14
0.000162435
1.05048e-13
0.000469465
-1.74537e-13
0.00122962
3.40773e-13
0.00210209
-2.50454e-13
0.00277157
3.45808e-13
0.00345885
1.16565e-13
0.00415953
3.54074e-14
0.00486255
9.77603e-14
0.00555176
7.85847e-14
0.00621444
6.70072e-14
0.00684227
8.49433e-14
0.00743001
1.33027e-14
0.00797456
7.66869e-14
0.00847437
-1.91461e-14
0.00892897
1.27149e-13
0.00933866
2.23354e-14
0.00970428
-9.71272e-15
0.0100271
3.79983e-13
0.0103086
-4.65921e-13
0.0105503
9.66298e-13
0.0107541
-3.69982e-14
0.0109213
-2.75367e-13
0.0110537
1.55479e-12
0.0111529
-5.64794e-13
0.0112217
1.12716e-12
0.0112632
-1.24369e-12
0.0112844
2.80599e-12
0.0112896
-7.69457e-13
0.0112872
3.25918e-12
0.0112751
-3.58252e-12
0.0112594
5.59244e-12
0.0112409
-3.69434e-13
0.0112039
-4.25538e-13
0.0111605
-2.71731e-13
0.0110848
-5.09785e-13
0.0109841
-4.57939e-13
0.0108561
-1.61139e-13
0.0106696
-3.77958e-13
0.0104502
-1.6111e-13
0.010187
2.59153e-13
0.00989121
5.18964e-14
0.00957187
2.34987e-13
0.00924448
3.78002e-13
0.00891789
7.23486e-13
0.00861266
1.00854e-12
0.00833756
1.07785e-12
0.00809653
1.99955e-12
0.00789193
1.81084e-12
0.00772392
3.25739e-12
0.00759117
2.87698e-12
0.00749138
3.27615e-12
0.00741979
4.21197e-12
0.0073669
4.36602e-12
0.00732674
4.25558e-12
0.00728328
5.79541e-12
0.00719968
7.71388e-12
0.00694208
1.14845e-11
0.00605864
1.16506e-11
0.00293318
1.014e-11
0.000691321
-3.05884e-13
0.000133724
8.11467e-14
1.7805e-05
2.51823e-14
1.94637e-06
1.07204e-14
2.05346e-07
-2.21394e-16
2.16158e-08
3.01625e-16
2.27436e-09
3.68629e-18
2.39188e-10
-4.94396e-17
2.50631e-11
1.40946e-17
2.56487e-12
-2.38524e-18
2.44991e-13
-6.50521e-19
2.19252e-14
3.46945e-18
1.94723e-15
-1.95156e-18
1.82796e-16
-1.51788e-18
1.19262e-17
-3.25261e-18
8.45678e-18
2.1684e-19
-4.11997e-18
1.04083e-16
-6.93889e-17
4.51028e-17
-2.60209e-17
5.20417e-17
-7.45931e-17
3.1225e-17
1.56125e-17
1.73472e-17
-4.33681e-17
9.71445e-17
2.77556e-17
8.04912e-16
-3.81639e-17
4.91621e-15
-3.1225e-17
2.96048e-14
-5.55112e-17
1.77514e-13
-6.07153e-17
1.05381e-12
-7.28584e-17
5.84032e-12
-1.64799e-16
2.91792e-11
-4.90927e-16
1.30879e-10
-7.56339e-16
5.49218e-10
-1.0044e-15
2.22118e-09
-2.03483e-15
8.71934e-09
1.01481e-15
3.32566e-08
1.83187e-15
1.23179e-07
-4.82253e-16
4.42672e-07
-5.13999e-15
1.542e-06
9.84803e-15
5.20106e-06
-1.48007e-14
1.69679e-05
2.02581e-14
5.34737e-05
-2.5157e-14
0.000162435
5.72094e-14
0.000469465
-1.29848e-13
0.00122962
3.69404e-13
0.00210209
-2.22426e-13
0.00277157
4.1351e-13
0.00345885
4.48148e-14
0.00415953
6.30164e-14
0.00486255
1.93752e-13
0.00555176
1.65756e-13
0.00621444
2.3712e-13
0.00684227
1.99141e-13
0.00743001
2.97184e-13
0.00797456
1.6225e-13
0.00847437
2.63737e-13
0.00892897
8.67917e-14
0.00933866
1.96605e-13
0.00970428
8.22398e-14
0.0100271
3.88017e-13
0.0103086
-1.16502e-13
0.0105503
8.83586e-13
0.0107541
7.16658e-14
0.0109213
1.69726e-13
0.0110537
-1.84447e-13
0.0111529
1.68799e-12
0.0112217
-2.69155e-13
0.0112632
5.05634e-13
0.0112844
6.63355e-13
0.0112896
2.20953e-12
0.0112872
-2.106e-12
0.0112751
1.21021e-12
0.0112594
6.99383e-13
0.0112409
4.78535e-13
0.0112039
-2.72295e-13
0.0111605
1.24212e-12
0.0110848
7.45529e-13
0.0109841
8.73693e-13
0.0108561
8.58661e-13
0.0106696
1.06586e-12
0.0104502
1.13823e-12
0.010187
1.34099e-12
0.00989121
1.37059e-12
0.00957187
1.29114e-12
0.00924448
5.3875e-13
0.00891789
1.15513e-12
0.00861266
1.13509e-12
0.00833756
8.35914e-13
0.00809653
1.45079e-12
0.00789193
1.37136e-12
0.00772392
3.8218e-12
0.00759117
4.01217e-12
0.00749138
4.28651e-12
0.00741979
6.20164e-12
0.0073669
5.43254e-12
0.00732674
5.68596e-12
0.00728328
6.03703e-12
0.00719968
5.29123e-12
0.00694208
1.13882e-11
0.00605864
8.58577e-12
0.00293318
8.14777e-12
0.000691321
1.09834e-11
0.000133724
1.98864e-12
1.7805e-05
-4.07775e-14
1.94637e-06
1.09635e-15
2.05346e-07
2.74737e-16
2.16158e-08
-1.7846e-16
2.27436e-09
-3.27429e-17
2.39188e-10
-1.47451e-17
2.50631e-11
-1.37694e-16
2.56494e-12
-3.18755e-17
2.45002e-13
-2.81893e-18
2.19165e-14
5.20417e-18
1.94181e-15
-1.95156e-18
1.77375e-16
2.81893e-18
2.75387e-17
-1.51788e-18
-3.46945e-18
-1.30104e-18
-7.80626e-18
1.00614e-16
1.04083e-17
6.245e-17
-3.29597e-17
1.21431e-16
4.85723e-17
5.55112e-17
2.77556e-17
1.00614e-16
5.20417e-18
1.00614e-16
-1.38778e-17
7.59809e-16
8.67362e-18
4.94396e-15
-2.77556e-17
2.95354e-14
-1.73472e-17
1.7758e-13
-2.60209e-17
1.05353e-12
-3.1225e-17
5.83977e-12
-4.33681e-17
2.9178e-11
-7.97973e-17
1.30877e-10
1.21431e-17
5.49217e-10
-9.36751e-16
2.22118e-09
-2.41127e-16
8.71935e-09
-1.63064e-16
3.32566e-08
3.81639e-17
1.23179e-07
-3.41741e-16
4.42672e-07
4.09395e-16
1.542e-06
-1.59942e-15
5.20106e-06
3.51282e-15
1.69679e-05
-4.70804e-15
5.34737e-05
6.79838e-15
0.000162435
1.85737e-14
0.000469465
-6.42889e-15
0.00122962
1.42018e-13
0.00210209
4.40724e-14
0.00277157
1.76794e-13
0.00345885
1.19833e-13
0.00415953
2.25814e-13
0.00486255
2.75403e-13
0.00555176
2.82136e-13
0.00621444
3.32693e-13
0.00684227
2.55686e-13
0.00743001
4.49976e-13
0.00797456
3.04148e-13
0.00847437
4.12546e-13
0.00892897
3.09234e-13
0.00933866
4.20916e-13
0.00970428
3.05685e-13
0.0100271
5.56089e-13
0.0103086
9.15422e-14
0.0105503
1.08688e-12
0.0107541
-1.17728e-13
0.0109213
1.1616e-12
0.0110537
-7.85896e-13
0.0111529
1.08056e-12
0.0112217
1.37031e-13
0.0112632
1.5756e-12
0.0112844
-6.71366e-13
0.0112896
9.31303e-13
0.0112872
2.05236e-12
0.0112751
7.46265e-14
0.0112594
-1.48204e-12
0.0112409
2.12806e-13
0.0112039
4.0163e-13
0.0111605
1.37457e-12
0.0110848
1.31789e-12
0.0109841
-1.09282e-13
0.0108561
-4.43387e-14
0.0106696
-1.12942e-12
0.0104502
4.0355e-13
0.010187
3.47568e-12
0.00989121
3.12873e-12
0.00957187
3.93837e-12
0.00924448
3.67622e-12
0.00891789
3.33158e-12
0.00861266
3.14227e-12
0.00833756
2.56229e-12
0.00809653
1.41341e-12
0.00789193
8.08016e-13
0.00772392
1.50048e-12
0.00759117
1.62159e-12
0.00749138
2.02421e-12
0.00741979
4.73478e-12
0.0073669
5.9742e-12
0.00732674
7.80199e-12
0.00728328
9.09361e-12
0.00719968
1.02791e-11
0.00694208
1.68821e-11
0.00605864
1.2599e-11
0.00293318
2.09634e-11
0.000691321
9.42833e-13
0.000133724
4.45289e-13
1.7805e-05
1.34962e-13
1.94637e-06
6.60778e-15
2.05346e-07
2.28333e-16
2.16158e-08
6.85216e-17
2.27436e-09
-1.55041e-16
2.39188e-10
-6.59195e-17
2.50633e-11
-4.27176e-17
2.56495e-12
-4.33681e-17
2.44997e-13
-3.46945e-18
2.19156e-14
-4.77049e-18
1.93985e-15
8.67362e-19
1.74123e-16
-3.68629e-18
7.37257e-18
4.33681e-19
-1.95156e-17
-2.1684e-19
8.23994e-18
9.36751e-17
5.72459e-17
7.63278e-17
1.73472e-18
1.249e-16
6.76542e-17
-3.46945e-18
-3.46945e-18
2.42861e-17
6.41848e-17
6.59195e-17
8.67362e-18
7.42462e-16
3.81639e-17
4.85029e-15
1.21431e-17
2.94834e-14
2.77556e-17
1.77629e-13
8.67362e-18
1.05344e-12
-5.20417e-18
5.83979e-12
1.9082e-17
2.91782e-11
2.11636e-16
1.30877e-10
8.37871e-16
5.49214e-10
8.69096e-16
2.22118e-09
3.81639e-16
8.71935e-09
-7.49401e-16
3.32566e-08
-9.85323e-16
1.23179e-07
6.92155e-16
4.42672e-07
2.13544e-15
1.542e-06
-1.23686e-14
5.20106e-06
2.39461e-14
1.69679e-05
-2.89629e-14
5.34737e-05
3.02692e-14
0.000162435
7.154e-15
0.000469465
3.95586e-14
0.00122962
-5.93622e-15
0.00210209
2.23583e-13
0.00277157
6.80584e-14
0.00345885
2.9683e-13
0.00415953
2.71509e-13
0.00486255
2.66846e-13
0.00555176
3.04742e-13
0.00621444
2.00711e-13
0.00684227
2.78007e-13
0.00743001
1.41801e-13
0.00797456
3.71214e-13
0.00847437
2.68007e-13
0.00892897
3.56399e-13
0.00933866
5.58901e-13
0.00970428
1.95777e-13
0.0100271
8.32372e-13
0.0103086
1.11299e-13
0.0105503
1.07729e-12
0.0107541
1.19006e-13
0.0109213
6.8891e-13
0.0110537
1.10749e-13
0.0111529
8.02176e-13
0.0112217
6.99476e-13
0.0112632
-1.44292e-13
0.0112844
8.04527e-13
0.0112896
-5.10984e-13
0.0112872
1.26292e-12
0.0112751
-1.01746e-12
0.0112594
5.25686e-13
0.0112409
-2.84203e-13
0.0112039
2.00535e-13
0.0111605
1.29083e-12
0.0110848
1.27457e-12
0.0109841
2.68526e-13
0.0108561
6.02648e-13
0.0106696
-8.49868e-13
0.0104502
7.13204e-13
0.010187
2.68558e-12
0.00989121
2.31885e-12
0.00957187
2.57725e-12
0.00924448
2.45818e-12
0.00891789
2.48828e-12
0.00861266
2.4126e-12
0.00833756
1.93285e-12
0.00809653
1.8718e-12
0.00789193
1.89829e-12
0.00772392
1.58874e-12
0.00759117
1.70251e-12
0.00749138
3.87953e-12
0.00741979
5.86651e-12
0.0073669
8.01189e-12
0.00732674
1.05953e-11
0.00728328
9.92696e-12
0.00719968
1.08611e-11
0.00694208
1.05303e-11
0.00605864
1.04436e-11
0.00293318
4.73661e-12
0.000691321
2.43587e-12
0.000133724
1.074e-12
1.7805e-05
1.75819e-14
1.94637e-06
4.08636e-15
2.05346e-07
5.57714e-16
2.16158e-08
1.26635e-16
2.27436e-09
2.51535e-17
2.39188e-10
3.31766e-17
2.50635e-11
3.44776e-17
2.56504e-12
-1.12757e-17
2.4502e-13
8.67362e-19
2.1925e-14
-3.90313e-18
1.93855e-15
4.55365e-18
1.73689e-16
-8.0231e-18
1.53957e-17
4.33681e-19
8.45678e-18
-5.63785e-18
-8.67362e-19
3.1225e-17
3.64292e-17
1.11022e-16
3.1225e-17
1.00614e-16
9.71445e-17
5.20417e-17
1.38778e-17
5.20417e-17
1.11022e-16
9.36751e-17
5.89806e-17
6.9042e-16
8.50015e-17
4.85376e-15
3.29597e-17
2.9473e-14
1.19696e-16
1.77552e-13
-2.60209e-17
1.05347e-12
8.67362e-17
5.83988e-12
2.7929e-16
2.91783e-11
1.11196e-15
1.30878e-10
1.09114e-15
5.49215e-10
1.26635e-16
2.22117e-09
2.27422e-15
8.71934e-09
-6.97359e-16
3.32566e-08
-2.71137e-15
1.23179e-07
1.2889e-15
4.42672e-07
9.96425e-15
1.542e-06
-2.84547e-14
5.20106e-06
5.05863e-14
1.69679e-05
-6.65076e-14
5.34737e-05
8.57838e-14
0.000162435
-8.22606e-14
0.000469465
1.82248e-13
0.00122962
-2.0965e-13
0.00210209
5.6849e-13
0.00277157
-3.6162e-14
0.00345885
3.39116e-13
0.00415953
2.65837e-13
0.00486255
2.8574e-13
0.00555176
2.23641e-13
0.00621444
3.15871e-13
0.00684227
1.97611e-13
0.00743001
2.66626e-13
0.00797456
2.22771e-13
0.00847437
4.34677e-13
0.00892897
3.1712e-13
0.00933866
5.55518e-13
0.00970428
3.46655e-13
0.0100271
8.08832e-13
0.0103086
1.91326e-13
0.0105503
1.18727e-12
0.0107541
-5.0111e-13
0.0109213
1.38076e-12
0.0110537
-1.12905e-12
0.0111529
1.96533e-12
0.0112217
-2.92918e-13
0.0112632
8.54442e-13
0.0112844
-1.44317e-12
0.0112896
1.88793e-12
0.0112872
-2.06464e-12
0.0112751
2.24012e-13
0.0112594
1.12458e-14
0.0112409
3.32736e-13
0.0112039
4.95986e-13
0.0111605
1.53573e-12
0.0110848
1.48839e-12
0.0109841
1.04433e-12
0.0108561
2.02253e-12
0.0106696
1.20336e-12
0.0104502
1.04326e-12
0.010187
7.76335e-13
0.00989121
7.28207e-14
0.00957187
-1.14612e-13
0.00924448
1.40122e-15
0.00891789
-8.17393e-14
0.00861266
5.62944e-14
0.00833756
3.76485e-13
0.00809653
1.6956e-12
0.00789193
2.74942e-12
0.00772392
2.93568e-12
0.00759117
3.0131e-12
0.00749138
4.94709e-12
0.00741979
6.48418e-12
0.0073669
9.11802e-12
0.00732674
9.77168e-12
0.00728328
9.65683e-12
0.00719968
1.05507e-11
0.00694208
1.05813e-11
0.00605864
9.89361e-12
0.00293318
1.85752e-11
0.000691321
-8.42875e-13
0.000133724
3.21726e-13
1.7805e-05
6.79181e-14
1.94637e-06
8.03741e-15
2.05346e-07
1.30885e-15
2.16158e-08
-4.55365e-18
2.27436e-09
5.72459e-17
2.39188e-10
1.14492e-16
2.50635e-11
1.40729e-16
2.56504e-12
3.36103e-17
2.45021e-13
1.77809e-17
2.19148e-14
-5.42101e-18
1.93075e-15
-4.33681e-19
1.65449e-16
-8.23994e-18
9.75782e-18
-2.1684e-18
4.33681e-19
-1.95156e-18
-1.0842e-18
1.38778e-17
8.32667e-17
8.67362e-17
1.11022e-16
1.04083e-16
2.42861e-17
1.2837e-16
2.25514e-17
1.00614e-16
7.11237e-17
5.89806e-17
5.37764e-17
7.11237e-16
6.76542e-17
4.71845e-15
8.1532e-17
2.95007e-14
2.60209e-17
1.77389e-13
6.245e-17
1.05407e-12
9.36751e-17
5.84175e-12
-2.25514e-17
2.91829e-11
3.64292e-17
1.30881e-10
-4.23273e-16
5.49217e-10
8.08381e-16
2.22118e-09
-4.63171e-16
8.71934e-09
1.73472e-16
3.32566e-08
2.93342e-15
1.23179e-07
2.1233e-15
4.42672e-07
-9.74221e-15
1.542e-06
2.03674e-14
5.20107e-06
-3.00541e-14
1.69679e-05
3.6058e-14
5.34737e-05
-2.89838e-14
0.000162435
7.77572e-14
0.000469465
-1.72825e-13
0.00122962
3.70225e-13
0.00210209
-1.50699e-13
0.00277157
2.93474e-13
0.00345885
3.46546e-13
0.00415953
8.93391e-14
0.00486255
3.10845e-13
0.00555176
1.92447e-13
0.00621444
3.38045e-13
0.00684227
2.62662e-13
0.00743001
2.95756e-13
0.00797456
3.1835e-13
0.00847437
2.68465e-13
0.00892897
4.04028e-13
0.00933866
3.17238e-13
0.00970428
3.77425e-13
0.0100271
6.54849e-13
0.0103086
1.26739e-13
0.0105503
1.15295e-12
0.0107541
-6.56978e-13
0.0109213
2.58274e-12
0.0110537
-2.37204e-12
0.0111529
2.91546e-12
0.0112217
-2.27953e-12
0.0112632
3.36245e-12
0.0112844
-7.5543e-12
0.0112896
7.87483e-12
0.0112872
-3.10735e-12
0.0112751
3.72571e-12
0.0112594
-8.63036e-12
0.0112409
2.25596e-12
0.0112039
3.43374e-12
0.0111605
2.21528e-12
0.0110848
2.82945e-12
0.0109841
2.08608e-12
0.0108561
1.9822e-12
0.0106696
8.21399e-13
0.0104502
2.16221e-13
0.010187
-2.12011e-12
0.00989121
-1.40139e-12
0.00957187
-1.57208e-12
0.00924448
-2.32866e-12
0.00891789
-2.46339e-12
0.00861266
-1.60664e-12
0.00833756
-4.60043e-13
0.00809653
3.99536e-13
0.00789193
1.55404e-12
0.00772392
2.61599e-12
0.00759117
5.81611e-12
0.00749138
6.94477e-12
0.00741979
9.19375e-12
0.0073669
1.10857e-11
0.00732674
1.21966e-11
0.00728328
1.21271e-11
0.00719968
1.2786e-11
0.00694208
1.32343e-11
0.00605864
1.34026e-11
0.00293318
5.2429e-12
0.000691321
2.76416e-12
0.000133724
6.47773e-13
1.7805e-05
1.49223e-13
1.94637e-06
2.98301e-14
2.05346e-07
2.16125e-15
2.16158e-08
1.51355e-16
2.27435e-09
4.70544e-17
2.39188e-10
-6.50521e-18
2.50632e-11
2.34188e-17
2.56492e-12
1.12757e-17
2.45007e-13
1.51788e-18
2.1913e-14
3.68629e-18
1.93508e-15
-4.11997e-18
1.76074e-16
4.11997e-18
1.56125e-17
-6.28837e-18
7.58942e-18
6.93889e-18
2.60209e-18
1.00614e-16
4.51028e-17
7.97973e-17
8.50015e-17
1.73472e-16
8.32667e-17
1.35308e-16
7.11237e-17
-6.59195e-17
3.1225e-17
-2.42861e-17
5.20417e-18
7.18176e-16
3.81639e-17
4.80518e-15
-2.94903e-17
2.92509e-14
3.64292e-17
1.77466e-13
2.08167e-17
1.05386e-12
5.55112e-17
5.84082e-12
-2.25514e-17
2.91803e-11
-1.73472e-17
1.30878e-10
-4.30211e-16
5.49218e-10
-1.07726e-15
2.22117e-09
1.24727e-15
8.71934e-09
4.94396e-16
3.32566e-08
-3.79904e-16
1.23179e-07
2.76168e-15
4.42672e-07
-5.22325e-15
1.542e-06
1.08056e-14
5.20106e-06
-1.97637e-14
1.69679e-05
3.62748e-14
5.34737e-05
-4.05613e-14
0.000162435
5.95739e-14
0.000469465
-3.5999e-14
0.00122962
1.12689e-13
0.00210209
1.73226e-13
0.00277157
3.09249e-14
0.00345885
3.5565e-13
0.00415953
1.56273e-13
0.00486255
1.43214e-13
0.00555176
2.38843e-13
0.00621444
1.19508e-13
0.00684227
3.09716e-13
0.00743001
1.59545e-13
0.00797456
3.44502e-13
0.00847437
2.8444e-13
0.00892897
2.9991e-13
0.00933866
3.74418e-13
0.00970428
3.27375e-13
0.0100271
8.06582e-13
0.0103086
-1.46551e-13
0.0105503
1.41121e-12
0.0107541
-7.50024e-13
0.0109213
2.93373e-12
0.0110537
-3.88112e-12
0.0111529
4.50797e-12
0.0112217
-1.56847e-12
0.0112632
3.24977e-12
0.0112844
-7.14207e-12
0.0112896
6.89925e-12
0.0112872
-1.75196e-12
0.0112751
3.24225e-12
0.0112594
-8.96104e-12
0.0112409
1.60043e-12
0.0112039
2.84282e-12
0.0111605
3.89448e-12
0.0110848
2.98662e-12
0.0109841
2.23994e-12
0.0108561
1.80579e-12
0.0106696
-1.13949e-12
0.0104502
-2.12829e-12
0.010187
-5.15225e-12
0.00989121
-4.88094e-12
0.00957187
-4.32117e-12
0.00924448
-4.40081e-12
0.00891789
-4.17001e-12
0.00861266
-3.45062e-12
0.00833756
-2.51799e-12
0.00809653
-1.90209e-12
0.00789193
-3.07759e-13
0.00772392
1.3312e-12
0.00759117
4.36677e-12
0.00749138
6.31216e-12
0.00741979
8.86845e-12
0.0073669
1.04282e-11
0.00732674
1.18738e-11
0.00728328
1.26521e-11
0.00719968
1.37948e-11
0.00694208
1.58243e-11
0.00605864
1.90045e-11
0.00293318
3.1724e-11
0.000691321
3.58408e-12
0.000133724
2.23892e-12
1.7805e-05
6.134e-14
1.94637e-06
4.50985e-15
2.05346e-07
4.5363e-16
2.16158e-08
-1.73472e-18
2.27436e-09
-4.77049e-18
2.39188e-10
-4.79217e-17
2.50632e-11
-5.33427e-17
2.56493e-12
-6.07153e-18
2.44992e-13
-3.68629e-18
2.19208e-14
-2.60209e-18
1.93639e-15
-8.45678e-18
1.77375e-16
-6.28837e-18
3.46945e-17
-8.23994e-18
2.1684e-19
-5.85469e-18
-9.1073e-18
3.46945e-17
1.73472e-17
-2.42861e-17
2.42861e-17
-3.46945e-17
5.20417e-17
6.9042e-16
4.71845e-15
2.95909e-14
1.77632e-13
1.05372e-12
5.84015e-12
2.91794e-11
1.30878e-10
5.49216e-10
2.22118e-09
8.71934e-09
3.32566e-08
1.23179e-07
4.42672e-07
1.542e-06
5.20106e-06
1.69679e-05
5.34737e-05
0.000162435
0.000469465
0.00122962
0.00210209
0.00277157
0.00345885
0.00415953
0.00486255
0.00555176
0.00621444
0.00684227
0.00743001
0.00797456
0.00847437
0.00892897
0.00933866
0.00970428
0.0100271
0.0103086
0.0105503
0.0107541
0.0109213
0.0110537
0.0111529
0.0112217
0.0112632
0.0112844
0.0112896
0.0112872
0.0112751
0.0112594
0.0112409
0.0112039
0.0111605
0.0110848
0.0109841
0.0108561
0.0106696
0.0104502
0.010187
0.00989121
0.00957187
0.00924448
0.00891789
0.00861266
0.00833756
0.00809653
0.00789193
0.00772392
0.00759117
0.00749138
0.00741979
0.0073669
0.00732674
0.00728328
0.00719968
0.00694208
0.00605864
0.00293318
0.000691321
0.000133724
1.7805e-05
1.94637e-06
2.05346e-07
2.16158e-08
2.27436e-09
2.39188e-10
2.50632e-11
2.56493e-12
2.44985e-13
2.19111e-14
1.93725e-15
1.77592e-16
2.5804e-17
-2.1684e-18
)
;

boundaryField
{
    sides1
    {
        type            calculated;
        value           nonuniform List<scalar> 
20
(
-4.98733e-18
-8.67362e-19
1.45283e-17
-8.23994e-18
-3.16587e-17
7.15573e-18
1.30104e-18
1.71304e-17
-1.51788e-18
-5.85469e-18
0
-1.56125e-16
5.20417e-17
-2.18575e-16
-1.8735e-16
-1.97758e-16
-2.08167e-17
9.02056e-17
-1.76942e-16
-1.38778e-17
)
;
    }
    sides2
    {
        type            calculated;
        value           nonuniform List<scalar> 
200
(
1.04083e-17
-1.73472e-17
5.20417e-18
-2.42861e-17
1.9082e-17
-2.77556e-17
2.77556e-17
-5.0307e-17
3.46945e-18
1.56125e-17
6.07153e-17
0
-1.07553e-16
-6.26235e-16
-1.58033e-15
-5.96745e-16
-1.02869e-15
-1.48145e-15
2.29677e-15
-1.0358e-14
1.66412e-14
-3.17836e-14
4.04052e-14
-5.23939e-14
8.08936e-14
-1.37093e-13
2.20917e-13
-1.68983e-13
9.86468e-14
-3.19692e-14
-4.80735e-14
9.49501e-15
-5.63282e-14
-1.8807e-14
1.61138e-14
-1.78954e-14
5.94039e-14
3.78838e-14
8.3592e-14
-6.1221e-14
4.63002e-13
-7.52061e-13
1.20089e-12
-5.03736e-13
-1.11945e-13
-3.7311e-13
3.32118e-12
-3.8702e-12
2.04827e-12
-2.48781e-12
5.87642e-12
-3.60428e-12
-1.63291e-12
-1.10676e-13
3.7504e-12
1.11681e-12
3.4378e-13
4.64781e-13
6.84787e-13
1.56439e-12
1.18346e-12
3.64787e-12
4.35527e-12
5.73724e-12
6.15924e-12
6.09727e-12
5.83082e-12
5.2444e-12
4.98301e-12
4.39957e-12
2.99714e-12
1.88666e-12
6.32562e-13
-1.55563e-12
-2.24513e-12
-2.40174e-12
-3.71266e-12
-5.41977e-12
-6.19273e-12
-7.06631e-12
-6.78946e-12
-5.93213e-12
-3.35865e-12
-7.56224e-13
-1.64161e-13
-6.44255e-15
2.05261e-15
6.00648e-17
-3.10082e-17
-8.0231e-18
-1.07119e-16
-3.79471e-17
-1.6263e-17
-9.97466e-18
-7.58942e-18
-8.67362e-18
-1.0842e-17
-9.1073e-18
-1.0842e-17
-1.12757e-17
5.89806e-17
1.73472e-17
3.98986e-17
-8.67362e-18
5.20417e-18
-2.42861e-17
2.25514e-17
-3.81639e-17
8.67362e-18
1.56125e-17
6.245e-17
2.60209e-17
-7.45931e-17
4.33681e-17
-4.68375e-16
2.44596e-16
5.75928e-16
6.41848e-17
9.85323e-16
-1.26808e-15
3.14158e-15
-5.47132e-15
1.00909e-14
-7.83401e-15
7.55125e-15
1.00683e-14
-1.14145e-14
1.71885e-13
-6.60496e-14
2.24959e-13
9.16229e-14
1.22145e-13
1.69961e-13
1.22422e-13
1.85539e-13
1.6025e-13
1.7831e-13
2.042e-13
1.89929e-13
3.13703e-13
1.26938e-13
8.37537e-13
-4.84744e-13
1.69336e-12
-1.01181e-12
2.92899e-12
-2.7508e-12
3.12139e-12
2.15388e-13
1.12944e-12
-3.51151e-12
4.93433e-12
3.22504e-13
2.37657e-12
-4.19089e-12
7.18119e-13
2.09014e-12
2.66234e-12
2.6021e-12
1.87536e-12
2.31733e-12
-7.64753e-13
-1.33531e-12
-4.11616e-12
-4.6181e-12
-5.28407e-12
-5.40952e-12
-5.24279e-12
-4.83642e-12
-4.04925e-12
-2.63957e-12
-7.98092e-13
1.65394e-12
4.37897e-12
6.51699e-12
8.14339e-12
9.1469e-12
1.04723e-11
1.1976e-11
1.36755e-11
1.52411e-11
1.57154e-11
1.08004e-11
1.99677e-12
4.9117e-13
1.61585e-14
5.9024e-16
-1.10155e-16
-5.20417e-18
-3.90313e-17
-4.83554e-17
-2.97071e-17
-4.98733e-18
-7.15573e-18
-9.75782e-18
-9.1073e-18
-1.19262e-17
-7.37257e-18
-1.0842e-17
-9.97466e-18
)
;
    }
    empty
    {
        type            empty;
        value           nonuniform 0();
    }
}


// ************************************************************************* //
