/*--------------------------------*- C++ -*----------------------------------*\
| =========                 |                                                 |
| \\      /  F ield         | OpenFOAM: The Open Source CFD Toolbox           |
|  \\    /   O peration     | Version:  3.0.0                                 |
|   \\  /    A nd           | Web:      www.OpenFOAM.org                      |
|    \\/     M anipulation  |                                                 |
\*---------------------------------------------------------------------------*/
FoamFile
{
    version     2.0;
    format      ascii;
    class       volVectorField;
    location    "0.0002";
    object      U;
}
// * * * * * * * * * * * * * * * * * * * * * * * * * * * * * * * * * * * * * //

dimensions      [0 1 -1 0 0 0 0];

internalField   nonuniform List<vector> 
1000
(
(-1.92596e-14 -2.19735e-13 0)
(6.69417e-13 3.41128e-13 0)
(6.41987e-15 -1.2402e-13 0)
(1.11531e-12 4.88202e-13 0)
(4.08537e-13 -4.05619e-13 0)
(7.60463e-13 5.92087e-13 0)
(2.12906e-12 -5.69326e-13 0)
(1.15523e-11 1.04498e-12 0)
(8.48584e-11 -8.75437e-14 0)
(5.07114e-10 -2.8977e-13 0)
(3.03671e-09 -1.17688e-12 0)
(1.85872e-08 2.50958e-14 0)
(1.0975e-07 2.17838e-12 0)
(5.50115e-07 1.24671e-11 0)
(2.41297e-06 3.12589e-11 0)
(1.00461e-05 1.16783e-11 0)
(4.04955e-05 2.03087e-11 0)
(0.000158582 2.90254e-11 0)
(0.000603304 -4.52976e-11 0)
(0.00222794 2.04872e-10 0)
(0.00797873 -3.29862e-10 0)
(0.027681 6.30723e-10 0)
(0.0929452 -8.0368e-10 0)
(0.301819 1.04262e-09 0)
(0.94778 -1.60975e-09 0)
(2.88997 2.74316e-09 0)
(8.81518 -4.49439e-09 0)
(19.045 3.54217e-09 0)
(26.9705 -2.11433e-09 0)
(34.9646 7.01096e-10 0)
(43.7043 1.07902e-09 0)
(53.1406 -2.14496e-10 0)
(63.1454 1.33717e-09 0)
(73.5854 4.60155e-10 0)
(84.3549 -4.14248e-10 0)
(95.3736 4.67933e-10 0)
(106.579 -1.61948e-09 0)
(117.923 -1.06903e-09 0)
(129.363 -2.44243e-09 0)
(140.867 1.85645e-09 0)
(152.403 -1.45688e-08 0)
(163.942 2.45751e-08 0)
(175.45 -4.07441e-08 0)
(186.892 1.77537e-08 0)
(198.217 4.09993e-09 0)
(209.35 1.41792e-08 0)
(220.175 -1.30821e-07 0)
(230.509 1.57985e-07 0)
(240.086 -8.63264e-08 0)
(248.581 1.08121e-07 0)
(255.623 -2.61867e-07 0)
(261.063 1.63839e-07 0)
(264.773 7.54652e-08 0)
(266.573 5.15037e-09 0)
(267.399 -1.75151e-07 0)
(267.984 -5.22082e-08 0)
(269.085 -1.62956e-08 0)
(268.607 -2.19949e-08 0)
(270.238 -3.27687e-08 0)
(269.307 -7.50232e-08 0)
(270.907 -5.78952e-08 0)
(271.148 -1.80891e-07 0)
(272.37 -2.21162e-07 0)
(272.807 -2.98317e-07 0)
(273.904 -3.30658e-07 0)
(274.349 -3.38176e-07 0)
(275.075 -3.35289e-07 0)
(275.091 -3.12572e-07 0)
(275.08 -3.07595e-07 0)
(274.804 -2.80594e-07 0)
(274.318 -1.9681e-07 0)
(273.716 -1.27063e-07 0)
(273.054 -4.3498e-08 0)
(272.394 1.0898e-07 0)
(271.812 1.59448e-07 0)
(271.363 1.723e-07 0)
(270.997 2.67818e-07 0)
(270.621 3.92727e-07 0)
(270.095 4.50282e-07 0)
(268.886 5.16307e-07 0)
(265.323 5.01655e-07 0)
(253.178 4.55442e-07 0)
(209.791 3.03514e-07 0)
(93.7575 9.6846e-08 0)
(22.7548 2.4979e-08 0)
(2.83356 1.04993e-09 0)
(0.279754 -3.39979e-10 0)
(0.0290057 -1.05891e-11 0)
(0.00304931 4.89029e-12 0)
(0.000320839 1.19331e-12 0)
(3.37474e-05 1.69714e-11 0)
(3.54238e-06 6.03626e-12 0)
(3.64237e-07 2.58868e-12 0)
(3.34609e-08 1.5579e-12 0)
(2.72678e-09 1.20191e-12 0)
(2.43953e-10 1.33585e-12 0)
(2.27467e-11 1.71168e-12 0)
(1.66237e-12 1.42164e-12 0)
(1.88501e-13 1.71971e-12 0)
(-3.98303e-13 1.73823e-12 0)
(1.58454e-12 -1.01346e-12 0)
(7.38868e-13 -1.53318e-12 0)
(5.49774e-13 -1.00354e-12 0)
(5.25262e-13 -1.59884e-12 0)
(6.06969e-13 -1.11326e-12 0)
(2.99399e-13 -1.31695e-12 0)
(2.26271e-12 -1.69514e-12 0)
(1.4548e-11 -9.54226e-13 0)
(8.01877e-11 -1.36043e-12 0)
(5.05841e-10 -1.75437e-12 0)
(3.03584e-09 -1.76342e-12 0)
(1.85973e-08 9.516e-13 0)
(1.09785e-07 2.0138e-11 0)
(5.50179e-07 6.11883e-11 0)
(2.413e-06 2.15883e-11 0)
(1.00461e-05 7.65412e-11 0)
(4.04956e-05 6.28079e-11 0)
(0.000158582 1.96987e-11 0)
(0.000603304 -7.43646e-11 0)
(0.00222794 4.10508e-10 0)
(0.00797873 -5.07385e-10 0)
(0.027681 7.73091e-10 0)
(0.0929452 -1.05424e-09 0)
(0.301819 2.26786e-09 0)
(0.94778 -4.91954e-09 0)
(2.88997 1.0554e-08 0)
(8.81518 -1.73933e-08 0)
(19.045 1.84678e-08 0)
(26.9705 -1.25166e-08 0)
(34.9646 7.10241e-09 0)
(43.7043 2.53177e-09 0)
(53.1406 1.00538e-09 0)
(63.1454 6.35661e-10 0)
(73.5854 1.11919e-10 0)
(84.3549 -7.12904e-11 0)
(95.3736 -2.2565e-09 0)
(106.579 -2.91536e-09 0)
(117.923 -2.98878e-09 0)
(129.363 -6.12898e-09 0)
(140.867 -3.53546e-09 0)
(152.403 -1.52773e-08 0)
(163.942 1.28057e-08 0)
(175.45 -4.21436e-08 0)
(186.892 2.98433e-08 0)
(198.217 -2.90066e-08 0)
(209.35 3.74105e-08 0)
(220.175 -1.55351e-07 0)
(230.509 2.04883e-07 0)
(240.086 -1.17187e-07 0)
(248.581 9.35955e-08 0)
(255.623 -2.5728e-07 0)
(261.063 9.43878e-08 0)
(264.773 4.21831e-07 0)
(266.573 -1.95143e-07 0)
(267.399 -2.86524e-07 0)
(267.984 -1.47584e-08 0)
(269.085 9.3115e-08 0)
(268.607 6.36472e-08 0)
(270.238 2.33655e-08 0)
(269.307 -1.04066e-07 0)
(270.907 -1.54981e-07 0)
(271.148 -2.48249e-07 0)
(272.37 -2.92604e-07 0)
(272.807 -1.58145e-07 0)
(273.904 -1.12687e-07 0)
(274.349 -9.51952e-08 0)
(275.075 -1.0216e-07 0)
(275.091 -1.12505e-07 0)
(275.08 -1.14235e-07 0)
(274.804 -1.04149e-07 0)
(274.318 -1.53859e-08 0)
(273.716 1.01108e-07 0)
(273.054 1.85552e-07 0)
(272.394 3.27747e-07 0)
(271.812 3.52399e-07 0)
(271.363 3.24106e-07 0)
(270.997 3.6785e-07 0)
(270.621 3.99433e-07 0)
(270.095 4.54949e-07 0)
(268.886 4.51629e-07 0)
(265.323 3.48324e-07 0)
(253.178 3.31263e-07 0)
(209.791 2.57708e-07 0)
(93.7575 1.16297e-07 0)
(22.7548 4.78107e-08 0)
(2.83356 1.78068e-09 0)
(0.279754 -1.85142e-10 0)
(0.0290057 2.27657e-11 0)
(0.00304931 1.26813e-11 0)
(0.000320839 1.26191e-11 0)
(3.37474e-05 1.01392e-11 0)
(3.54237e-06 4.94363e-12 0)
(3.64225e-07 7.21862e-12 0)
(3.34569e-08 7.27158e-13 0)
(2.72709e-09 -1.48408e-12 0)
(2.45484e-10 6.49686e-13 0)
(2.22025e-11 -7.92375e-13 0)
(1.87567e-12 1.0973e-12 0)
(1.07994e-12 8.25786e-14 0)
(-7.55754e-14 9.27185e-13 0)
(-5.32265e-13 -1.28076e-12 0)
(8.12989e-13 -3.65349e-13 0)
(-6.92762e-13 -1.77247e-12 0)
(2.87727e-13 -5.37518e-13 0)
(1.56528e-12 -1.94668e-12 0)
(-4.26046e-14 -1.08788e-12 0)
(3.39086e-12 -1.70156e-12 0)
(1.2332e-11 -1.24487e-12 0)
(8.37927e-11 -1.27084e-12 0)
(5.03775e-10 -1.77714e-13 0)
(3.04177e-09 -3.12239e-13 0)
(1.86032e-08 1.75963e-13 0)
(1.0983e-07 -4.26454e-12 0)
(5.50231e-07 -5.72244e-12 0)
(2.41284e-06 -2.24532e-11 0)
(1.00463e-05 -1.57783e-12 0)
(4.04954e-05 -1.60777e-11 0)
(0.000158582 -2.99834e-11 0)
(0.000603304 6.13426e-11 0)
(0.00222794 -1.66694e-10 0)
(0.00797873 3.04702e-10 0)
(0.027681 -5.00405e-10 0)
(0.0929452 4.77528e-10 0)
(0.301819 -2.74954e-10 0)
(0.94778 2.18511e-10 0)
(2.88997 -4.56185e-10 0)
(8.81518 4.92847e-10 0)
(19.045 1.02757e-10 0)
(26.9705 -4.60788e-10 0)
(34.9646 3.28654e-09 0)
(43.7043 1.60855e-09 0)
(53.1406 2.02579e-09 0)
(63.1454 1.08529e-09 0)
(73.5854 1.38223e-09 0)
(84.3549 1.09095e-09 0)
(95.3736 -8.67519e-10 0)
(106.579 1.72221e-10 0)
(117.923 -2.11763e-09 0)
(129.363 1.47477e-09 0)
(140.867 1.67178e-09 0)
(152.403 -3.26653e-09 0)
(163.942 2.13547e-08 0)
(175.45 -2.62571e-08 0)
(186.892 4.38797e-08 0)
(198.217 -2.68551e-08 0)
(209.35 1.33845e-08 0)
(220.175 7.10824e-08 0)
(230.509 -1.56667e-07 0)
(240.086 2.46664e-07 0)
(248.581 -1.97764e-07 0)
(255.623 2.294e-07 0)
(261.063 -2.90554e-07 0)
(264.773 5.09028e-07 0)
(266.573 -2.89861e-07 0)
(267.399 2.08174e-07 0)
(267.984 2.57385e-08 0)
(269.085 3.3738e-09 0)
(268.607 1.79624e-09 0)
(270.238 5.10382e-10 0)
(269.307 -6.57607e-08 0)
(270.907 -7.42711e-08 0)
(271.148 -7.08232e-08 0)
(272.37 -7.24132e-08 0)
(272.807 1.17682e-08 0)
(273.904 1.24904e-08 0)
(274.349 5.99038e-08 0)
(275.075 1.0022e-07 0)
(275.091 1.4841e-07 0)
(275.08 2.11859e-07 0)
(274.804 2.43e-07 0)
(274.318 3.16772e-07 0)
(273.716 3.20858e-07 0)
(273.054 2.48647e-07 0)
(272.394 1.6465e-07 0)
(271.812 2.92318e-07 0)
(271.363 3.07068e-07 0)
(270.997 2.27371e-07 0)
(270.621 9.10931e-08 0)
(270.095 2.59705e-07 0)
(268.886 2.78493e-07 0)
(265.323 2.54834e-07 0)
(253.178 2.38054e-07 0)
(209.791 1.14154e-07 0)
(93.7575 -3.43937e-09 0)
(22.7548 2.779e-09 0)
(2.83356 1.59048e-09 0)
(0.279754 3.51267e-10 0)
(0.0290057 1.62981e-11 0)
(0.00304931 2.78934e-11 0)
(0.000320839 3.61295e-13 0)
(3.37474e-05 5.11228e-13 0)
(3.54238e-06 2.18979e-12 0)
(3.64218e-07 -3.26156e-12 0)
(3.34516e-08 -2.68745e-13 0)
(2.72905e-09 -5.66816e-13 0)
(2.45251e-10 -2.47882e-13 0)
(2.24255e-11 -6.36847e-13 0)
(2.78024e-12 -7.09359e-13 0)
(-3.26229e-13 -8.72327e-13 0)
(1.14063e-12 -7.07754e-13 0)
(2.16641e-12 -1.58542e-12 0)
(4.33633e-13 2.62631e-15 0)
(4.64565e-13 -1.504e-12 0)
(5.69034e-13 6.6183e-13 0)
(1.23145e-13 -1.26501e-12 0)
(2.22945e-13 7.23694e-13 0)
(1.64115e-12 -7.86726e-13 0)
(1.47733e-11 -2.55336e-13 0)
(8.25811e-11 -2.68175e-13 0)
(5.05563e-10 -6.38485e-13 0)
(3.03795e-09 -4.96956e-13 0)
(1.85969e-08 -2.38031e-12 0)
(1.09767e-07 -1.59055e-11 0)
(5.50161e-07 -5.32087e-11 0)
(2.41292e-06 -2.40894e-11 0)
(1.00462e-05 -9.69278e-11 0)
(4.04955e-05 -2.78018e-11 0)
(0.000158582 2.77304e-11 0)
(0.000603304 7.32866e-11 0)
(0.00222794 -2.68566e-10 0)
(0.00797873 4.25812e-10 0)
(0.027681 -8.39229e-10 0)
(0.0929452 1.23816e-09 0)
(0.301819 -1.52269e-09 0)
(0.94778 2.87433e-09 0)
(2.88997 -6.60135e-09 0)
(8.81518 1.32657e-08 0)
(19.045 -1.09355e-08 0)
(26.9705 1.09828e-08 0)
(34.9646 7.6996e-10 0)
(43.7043 5.59511e-10 0)
(53.1406 2.4785e-09 0)
(63.1454 2.16038e-09 0)
(73.5854 1.73141e-09 0)
(84.3549 1.03376e-09 0)
(95.3736 1.85534e-09 0)
(106.579 1.17858e-09 0)
(117.923 9.54212e-10 0)
(129.363 -8.05792e-11 0)
(140.867 8.50247e-10 0)
(152.403 -1.54123e-09 0)
(163.942 2.69984e-09 0)
(175.45 -8.94375e-09 0)
(186.892 1.02335e-08 0)
(198.217 1.46727e-08 0)
(209.35 -5.98793e-08 0)
(220.175 9.91395e-08 0)
(230.509 -2.50145e-08 0)
(240.086 3.40084e-08 0)
(248.581 -1.1352e-07 0)
(255.623 2.35131e-07 0)
(261.063 4.34143e-08 0)
(264.773 -2.7801e-07 0)
(266.573 4.35691e-08 0)
(267.399 2.81612e-07 0)
(267.984 5.13058e-08 0)
(269.085 -5.00597e-08 0)
(268.607 -1.56741e-08 0)
(270.238 -6.81058e-09 0)
(269.307 4.02425e-08 0)
(270.907 1.02025e-07 0)
(271.148 9.57526e-08 0)
(272.37 9.05778e-08 0)
(272.807 2.82885e-08 0)
(273.904 1.00966e-08 0)
(274.349 4.36788e-09 0)
(275.075 1.10937e-08 0)
(275.091 1.82231e-08 0)
(275.08 -2.44185e-09 0)
(274.804 -7.70088e-09 0)
(274.318 7.5173e-08 0)
(273.716 5.1201e-08 0)
(273.054 2.55935e-07 0)
(272.394 2.47099e-07 0)
(271.812 2.8307e-07 0)
(271.363 4.39349e-07 0)
(270.997 4.69302e-07 0)
(270.621 4.80457e-07 0)
(270.095 4.35687e-07 0)
(268.886 3.46358e-07 0)
(265.323 5.17585e-07 0)
(253.178 5.19152e-07 0)
(209.791 5.26089e-07 0)
(93.7575 1.90469e-07 0)
(22.7548 4.93838e-08 0)
(2.83356 3.76591e-09 0)
(0.279754 2.36077e-10 0)
(0.0290057 -4.5844e-11 0)
(0.00304931 9.96084e-12 0)
(0.000320839 -1.22691e-11 0)
(3.37474e-05 -7.58833e-12 0)
(3.54234e-06 -1.2772e-12 0)
(3.6423e-07 -7.71657e-13 0)
(3.34565e-08 -1.1847e-13 0)
(2.72782e-09 1.92586e-12 0)
(2.45283e-10 -7.82016e-14 0)
(2.17864e-11 1.768e-12 0)
(2.33029e-12 -3.60953e-13 0)
(1.16077e-12 1.16339e-12 0)
(-6.47789e-13 -7.78077e-13 0)
(1.84775e-12 -3.65641e-13 0)
(9.57144e-14 -9.88952e-13 0)
(1.58863e-12 -7.12314e-13 0)
(6.99766e-13 -3.92779e-13 0)
(2.74887e-13 -7.98398e-13 0)
(1.3114e-12 -7.25737e-13 0)
(-1.82674e-13 -7.12022e-13 0)
(1.66671e-11 -1.05257e-12 0)
(8.03686e-11 -1.25275e-12 0)
(5.07527e-10 -1.5965e-12 0)
(3.03591e-09 -1.1938e-12 0)
(1.85922e-08 -2.20902e-12 0)
(1.09762e-07 -2.69634e-12 0)
(5.50129e-07 -1.92946e-12 2.13095e-33)
(2.41294e-06 -1.58979e-11 0)
(1.00461e-05 -2.40188e-11 0)
(4.04957e-05 1.34088e-12 0)
(0.000158582 2.63684e-11 0)
(0.000603304 -1.81495e-11 0)
(0.00222794 8.58043e-12 0)
(0.00797873 -2.12058e-11 0)
(0.027681 -8.78507e-12 0)
(0.0929452 7.86273e-12 0)
(0.301819 -2.66992e-11 0)
(0.94778 4.19267e-10 0)
(2.88997 -6.63643e-10 0)
(8.81518 4.08232e-09 0)
(19.045 -4.99386e-10 0)
(26.9705 5.15462e-09 0)
(34.9646 1.30661e-09 0)
(43.7043 2.4192e-09 0)
(53.1406 5.95695e-09 1.99069e-33)
(63.1454 5.59776e-09 0)
(73.5854 9.4214e-09 0)
(84.3549 8.21587e-09 0)
(95.3736 1.12825e-08 0)
(106.579 9.89719e-09 -1.86732e-33)
(117.923 1.11151e-08 0)
(129.363 1.10171e-08 0)
(140.867 1.03272e-08 1.79124e-33)
(152.403 1.05791e-08 0)
(163.942 1.70483e-08 0)
(175.45 1.80921e-09 0)
(186.892 3.82097e-08 -1.69249e-33)
(198.217 -1.38376e-08 0)
(209.35 7.84254e-08 0)
(220.175 -8.11552e-08 0)
(230.509 1.78489e-07 0)
(240.086 -1.40701e-07 0)
(248.581 2.28978e-07 0)
(255.623 -1.78745e-07 0)
(261.063 1.95326e-07 0)
(264.773 -5.77455e-08 0)
(266.573 6.29681e-08 0)
(267.399 -1.42961e-07 0)
(267.984 -6.0041e-09 -7.73683e-34)
(269.085 2.3352e-08 7.73136e-34)
(268.607 9.6584e-08 0)
(270.238 7.87011e-08 0)
(269.307 3.03563e-08 -7.85886e-34)
(270.907 5.96794e-09 0)
(271.148 5.51007e-08 0)
(272.37 7.15664e-08 0)
(272.807 1.66101e-07 0)
(273.904 1.84961e-07 0)
(274.349 1.97017e-07 0)
(275.075 2.10103e-07 0)
(275.091 2.0747e-07 0)
(275.08 1.58561e-07 0)
(274.804 1.19624e-07 0)
(274.318 8.26818e-08 0)
(273.716 1.20381e-07 1.11022e-33)
(273.054 2.70658e-07 0)
(272.394 2.69598e-07 0)
(271.812 3.06021e-07 0)
(271.363 4.53429e-07 0)
(270.997 4.17181e-07 0)
(270.621 5.8718e-07 0)
(270.095 8.03167e-07 0)
(268.886 9.16107e-07 0)
(265.323 1.19146e-06 0)
(253.178 1.10624e-06 0)
(209.791 1.03121e-06 0)
(93.7575 4.96634e-07 0)
(22.7548 1.10431e-07 0)
(2.83356 6.11967e-09 0)
(0.279754 2.73927e-10 0)
(0.0290057 1.75364e-11 0)
(0.00304931 -3.55846e-11 0)
(0.000320839 -1.18385e-11 0)
(3.37474e-05 -1.79553e-11 0)
(3.54241e-06 -2.32044e-11 -8.52337e-34)
(3.64226e-07 -2.5433e-12 0)
(3.34585e-08 -4.95034e-13 -8.52337e-34)
(2.72629e-09 1.84124e-13 0)
(2.46074e-10 -4.96055e-14 0)
(2.11126e-11 -7.0469e-14 0)
(1.89835e-12 -7.09067e-14 0)
(-6.09314e-13 -1.56111e-13 0)
(-2.53367e-12 9.65848e-14 0)
(1.96331e-12 7.4879e-13 0)
(-1.57579e-14 1.7392e-13 0)
(1.47132e-12 1.14886e-12 0)
(1.71002e-13 2.31699e-13 0)
(-4.55227e-14 1.0406e-12 0)
(3.84608e-13 1.07679e-13 0)
(3.71769e-13 1.75963e-13 0)
(1.56335e-11 1.85593e-13 0)
(7.90741e-11 2.10397e-13 0)
(5.08618e-10 -1.39194e-13 0)
(3.03443e-09 -3.53968e-13 0)
(1.85938e-08 -2.1419e-13 0)
(1.09759e-07 -4.29256e-13 0)
(5.50144e-07 4.97511e-12 -2.13095e-33)
(2.41288e-06 -2.28897e-12 0)
(1.00461e-05 -1.5609e-12 0)
(4.04957e-05 -8.70417e-12 0)
(0.000158582 -1.13848e-11 0)
(0.000603304 1.8612e-12 0)
(0.00222794 1.08592e-11 0)
(0.00797873 -8.75727e-11 0)
(0.027681 2.20176e-10 0)
(0.0929452 -2.41455e-10 0)
(0.301819 2.0026e-10 0)
(0.94778 3.42283e-10 0)
(2.88997 1.12825e-10 0)
(8.81518 1.91096e-09 0)
(19.045 2.3227e-09 0)
(26.9705 1.96129e-09 0)
(34.9646 4.41418e-09 0)
(43.7043 5.09828e-09 0)
(53.1406 5.536e-09 -1.99069e-33)
(63.1454 6.86707e-09 0)
(73.5854 5.13505e-09 0)
(84.3549 4.83764e-09 0)
(95.3736 6.42035e-09 0)
(106.579 5.61533e-09 1.86732e-33)
(117.923 8.62798e-09 0)
(129.363 4.53888e-09 0)
(140.867 1.49782e-08 -1.79124e-33)
(152.403 4.46711e-09 0)
(163.942 2.55033e-08 0)
(175.45 2.61947e-09 0)
(186.892 4.00117e-08 1.69249e-33)
(198.217 5.50502e-09 0)
(209.35 3.82645e-08 0)
(220.175 3.42729e-08 0)
(230.509 -2.70726e-09 0)
(240.086 8.7117e-08 0)
(248.581 2.07657e-08 0)
(255.623 7.37332e-08 0)
(261.063 -1.23211e-07 0)
(264.773 2.66662e-07 0)
(266.573 -5.94964e-10 0)
(267.399 -1.36192e-08 0)
(267.984 1.15402e-08 7.73683e-34)
(269.085 1.80698e-08 -7.73136e-34)
(268.607 5.36691e-08 0)
(270.238 5.37497e-08 0)
(269.307 -3.8892e-08 7.85886e-34)
(270.907 -7.40635e-08 0)
(271.148 -9.57173e-08 0)
(272.37 -1.49342e-07 0)
(272.807 9.16671e-08 0)
(273.904 1.16282e-07 0)
(274.349 1.69976e-07 0)
(275.075 2.14894e-07 0)
(275.091 2.68635e-07 0)
(275.08 2.88627e-07 0)
(274.804 2.66089e-07 0)
(274.318 1.31713e-07 0)
(273.716 5.55463e-08 -1.11022e-33)
(273.054 -2.35991e-09 0)
(272.394 4.02933e-08 0)
(271.812 1.45157e-07 0)
(271.363 3.65943e-07 0)
(270.997 4.74439e-07 0)
(270.621 5.84829e-07 0)
(270.095 5.85183e-07 0)
(268.886 6.41582e-07 0)
(265.323 6.91264e-07 0)
(253.178 6.97152e-07 0)
(209.791 5.59284e-07 0)
(93.7575 3.03004e-07 0)
(22.7548 7.23116e-08 0)
(2.83356 8.27006e-09 0)
(0.279754 5.91178e-10 0)
(0.0290057 8.39827e-11 0)
(0.00304931 -3.9876e-12 0)
(0.000320839 -1.2939e-11 0)
(3.37474e-05 -1.33791e-13 0)
(3.54239e-06 -3.72041e-13 8.52337e-34)
(3.6425e-07 -5.3749e-12 0)
(3.34594e-08 2.82897e-13 8.52337e-34)
(2.72944e-09 2.2162e-13 0)
(2.44907e-10 4.43677e-13 0)
(2.18282e-11 -2.48465e-13 0)
(1.71868e-12 1.04901e-13 0)
(5.93515e-13 -1.86896e-13 0)
(5.90889e-13 6.78574e-13 0)
(2.36951e-13 1.09488e-12 0)
(1.39545e-12 -6.69125e-13 0)
(9.20959e-13 1.59329e-12 0)
(5.89461e-13 -9.43721e-13 0)
(2.55627e-13 1.90845e-12 0)
(8.74269e-13 2.77805e-13 0)
(-2.03685e-13 1.86439e-12 0)
(1.52052e-11 2.64965e-13 0)
(7.94861e-11 1.01055e-12 0)
(5.07851e-10 3.99491e-13 0)
(3.0345e-09 2.86268e-13 0)
(1.85932e-08 1.17163e-12 0)
(1.09762e-07 1.06608e-11 0)
(5.50148e-07 2.74111e-11 0)
(2.4129e-06 3.14892e-11 0)
(1.00461e-05 5.60323e-11 0)
(4.04956e-05 3.75743e-11 0)
(0.000158582 -2.54084e-11 0)
(0.000603304 -1.33575e-11 0)
(0.00222794 2.18731e-10 0)
(0.00797873 -4.81341e-10 0)
(0.027681 8.62134e-10 0)
(0.0929452 -9.63459e-10 0)
(0.301819 1.02102e-09 0)
(0.94778 -6.1243e-10 0)
(2.88997 2.68688e-09 0)
(8.81518 -2.5079e-09 0)
(19.045 1.04815e-08 0)
(26.9705 7.7238e-10 0)
(34.9646 9.0565e-09 0)
(43.7043 7.15773e-09 0)
(53.1406 6.6874e-09 0)
(63.1454 7.92978e-09 0)
(73.5854 8.17059e-09 0)
(84.3549 8.62039e-09 0)
(95.3736 8.71673e-09 0)
(106.579 8.56023e-09 0)
(117.923 1.31593e-08 0)
(129.363 1.35826e-08 0)
(140.867 1.80705e-08 0)
(152.403 1.6141e-08 0)
(163.942 2.69808e-08 0)
(175.45 1.52202e-08 0)
(186.892 3.17023e-08 0)
(198.217 3.77478e-08 0)
(209.35 1.50378e-08 0)
(220.175 2.2615e-08 0)
(230.509 9.77976e-08 0)
(240.086 -3.70927e-08 0)
(248.581 -1.28458e-07 0)
(255.623 1.4346e-07 0)
(261.063 -4.28786e-08 0)
(264.773 -8.72314e-08 0)
(266.573 -1.41057e-07 0)
(267.399 5.63184e-08 0)
(267.984 -1.69853e-08 0)
(269.085 -1.87715e-08 0)
(268.607 6.61432e-08 0)
(270.238 7.96929e-08 0)
(269.307 8.17234e-08 0)
(270.907 1.13924e-07 0)
(271.148 9.22138e-08 0)
(272.37 8.82101e-08 0)
(272.807 9.74595e-08 0)
(273.904 1.11628e-07 0)
(274.349 7.33267e-08 0)
(275.075 6.52848e-08 0)
(275.091 1.22507e-08 0)
(275.08 3.16434e-09 0)
(274.804 4.67633e-10 0)
(274.318 9.05868e-08 0)
(273.716 1.63801e-07 0)
(273.054 2.12888e-07 0)
(272.394 2.06132e-07 0)
(271.812 4.62461e-07 0)
(271.363 5.35035e-07 0)
(270.997 8.37984e-07 0)
(270.621 9.20898e-07 0)
(270.095 8.90005e-07 0)
(268.886 9.59508e-07 0)
(265.323 8.99272e-07 0)
(253.178 8.56822e-07 0)
(209.791 6.92018e-07 0)
(93.7575 3.14385e-07 0)
(22.7548 9.27638e-08 0)
(2.83356 7.02179e-09 0)
(0.279754 8.18393e-10 0)
(0.0290057 9.4351e-11 0)
(0.00304931 4.06657e-11 0)
(0.000320839 3.00946e-11 0)
(3.37474e-05 1.65946e-11 0)
(3.54239e-06 1.0801e-11 0)
(3.64246e-07 3.06752e-12 0)
(3.34617e-08 -1.35832e-13 0)
(2.72844e-09 -1.92586e-12 0)
(2.43704e-10 -1.23722e-13 0)
(2.17853e-11 -2.01311e-12 0)
(1.04376e-12 -3.73792e-13 0)
(-1.46774e-13 -1.94264e-12 0)
(9.24997e-14 -1.12998e-12 0)
(-9.32632e-13 1.55361e-12 0)
(1.23612e-12 1.94668e-12 0)
(1.23728e-13 1.87052e-12 0)
(1.20052e-12 1.54952e-12 0)
(2.12031e-12 2.42992e-12 0)
(-3.79356e-14 1.62218e-12 0)
(1.25304e-12 1.8854e-12 0)
(1.11093e-11 1.83812e-12 0)
(8.39281e-11 9.58019e-13 0)
(5.01736e-10 8.8565e-13 0)
(3.03968e-09 4.6865e-13 0)
(1.86005e-08 1.74154e-12 0)
(1.09813e-07 7.15844e-12 0)
(5.50201e-07 4.44051e-12 0)
(2.41288e-06 1.42419e-11 0)
(1.00462e-05 1.74463e-11 0)
(4.04956e-05 -1.9636e-12 0)
(0.000158581 1.30458e-11 0)
(0.000603304 1.28039e-11 0)
(0.00222794 3.96928e-11 0)
(0.00797873 -4.36297e-11 0)
(0.027681 1.22681e-10 0)
(0.0929452 -1.51271e-10 0)
(0.301819 2.39545e-10 0)
(0.94778 -2.06609e-10 0)
(2.88997 8.95477e-11 0)
(8.81518 9.9815e-11 0)
(19.045 4.17252e-10 0)
(26.9705 2.72557e-09 0)
(34.9646 5.49418e-09 0)
(43.7043 3.04103e-09 0)
(53.1406 6.71235e-09 0)
(63.1454 3.3461e-09 0)
(73.5854 6.94347e-09 0)
(84.3549 6.03548e-09 0)
(95.3736 4.83045e-09 0)
(106.579 6.57362e-09 0)
(117.923 4.29653e-09 0)
(129.363 6.94067e-09 0)
(140.867 7.59214e-09 0)
(152.403 6.56653e-09 0)
(163.942 1.88282e-08 0)
(175.45 -1.86117e-09 0)
(186.892 4.3788e-08 0)
(198.217 -3.25052e-08 0)
(209.35 1.04029e-07 0)
(220.175 -6.46579e-08 0)
(230.509 7.20382e-08 0)
(240.086 2.50617e-08 0)
(248.581 8.71618e-08 0)
(255.623 -1.26913e-07 0)
(261.063 1.75332e-07 0)
(264.773 -9.31968e-08 0)
(266.573 9.80707e-08 0)
(267.399 -2.13923e-09 0)
(267.984 4.45526e-08 0)
(269.085 3.13718e-08 0)
(268.607 6.93447e-08 0)
(270.238 7.62299e-08 0)
(269.307 7.94646e-08 0)
(270.907 9.88119e-08 0)
(271.148 9.70151e-08 0)
(272.37 1.21216e-07 0)
(272.807 3.15453e-08 0)
(273.904 2.18653e-09 0)
(274.349 2.82843e-08 0)
(275.075 3.35781e-08 0)
(275.091 5.24086e-08 0)
(275.08 6.88931e-08 0)
(274.804 1.06938e-07 0)
(274.318 2.24544e-07 0)
(273.716 3.52131e-07 0)
(273.054 4.83373e-07 0)
(272.394 6.20115e-07 0)
(271.812 4.95579e-07 0)
(271.363 2.90491e-07 0)
(270.997 3.60687e-07 0)
(270.621 4.10804e-07 0)
(270.095 4.47142e-07 0)
(268.886 5.3144e-07 0)
(265.323 5.72763e-07 0)
(253.178 6.12438e-07 0)
(209.791 5.12964e-07 0)
(93.7575 2.18684e-07 0)
(22.7548 6.39903e-08 0)
(2.83356 1.3382e-08 0)
(0.279754 1.66403e-09 0)
(0.0290057 2.40394e-10 0)
(0.00304931 6.20317e-12 0)
(0.000320839 2.87619e-11 0)
(3.37474e-05 1.46199e-11 0)
(3.54236e-06 1.65268e-11 0)
(3.64231e-07 3.76768e-12 0)
(3.34536e-08 6.97979e-13 0)
(2.73011e-09 5.84761e-13 0)
(2.435e-10 1.38312e-13 0)
(2.16359e-11 1.16019e-12 0)
(2.39565e-12 6.93164e-13 0)
(7.06149e-14 1.76435e-12 0)
(1.38049e-12 1.83292e-12 0)
(1.71644e-12 1.48824e-12 0)
(7.66299e-13 2.6339e-12 0)
(9.52475e-13 8.73102e-13 0)
(2.45356e-12 1.94872e-12 0)
(1.35984e-13 9.34966e-13 0)
(-8.97031e-13 7.30114e-13 0)
(7.17274e-13 7.41787e-13 0)
(1.41541e-11 8.06861e-13 0)
(7.91418e-11 1.15353e-12 0)
(5.03635e-10 1.26296e-12 0)
(3.03946e-09 2.22682e-12 0)
(1.85953e-08 -2.61756e-13 0)
(1.09792e-07 -6.28359e-12 0)
(5.50137e-07 -1.94405e-11 0)
(2.41294e-06 -2.99107e-11 0)
(1.00461e-05 -2.58986e-11 0)
(4.04956e-05 -1.83308e-11 0)
(0.000158582 -2.0327e-11 0)
(0.000603304 1.18912e-10 0)
(0.00222794 -2.96509e-10 0)
(0.00797873 5.19085e-10 0)
(0.027681 -8.7827e-10 0)
(0.0929452 1.17982e-09 0)
(0.301819 -1.27989e-09 0)
(0.94778 2.60383e-09 0)
(2.88997 -2.94134e-09 0)
(8.81518 6.80565e-09 0)
(19.045 1.01426e-09 0)
(26.9705 3.16072e-09 0)
(34.9646 9.17214e-09 0)
(43.7043 2.3446e-09 0)
(53.1406 5.9657e-09 0)
(63.1454 5.95719e-09 0)
(73.5854 7.55158e-09 0)
(84.3549 8.20533e-09 0)
(95.3736 9.90013e-09 0)
(106.579 1.22452e-08 0)
(117.923 1.15817e-08 0)
(129.363 1.62416e-08 0)
(140.867 1.46592e-08 0)
(152.403 1.68276e-08 0)
(163.942 2.72612e-08 0)
(175.45 8.66755e-09 0)
(186.892 4.33485e-08 0)
(198.217 -1.50806e-08 0)
(209.35 1.21294e-07 0)
(220.175 -2.35675e-07 0)
(230.509 3.44388e-07 0)
(240.086 -3.73897e-07 0)
(248.581 4.99808e-07 0)
(255.623 -8.93785e-07 0)
(261.063 7.48203e-07 0)
(264.773 -2.44547e-07 0)
(266.573 3.25971e-07 0)
(267.399 -8.04807e-07 0)
(267.984 5.49809e-08 0)
(269.085 2.37064e-07 0)
(268.607 2.55075e-07 0)
(270.238 2.04121e-07 0)
(269.307 8.62519e-08 0)
(270.907 3.19631e-08 0)
(271.148 -1.23511e-07 0)
(272.37 -1.34149e-07 0)
(272.807 -2.93168e-07 0)
(273.904 -3.15351e-07 0)
(274.349 -2.47745e-07 0)
(275.075 -2.63685e-07 0)
(275.091 -2.89987e-07 0)
(275.08 -2.75496e-07 0)
(274.804 -2.49442e-07 0)
(274.318 -2.5994e-07 0)
(273.716 -1.07181e-07 0)
(273.054 -8.68163e-09 0)
(272.394 2.73574e-07 0)
(271.812 4.37254e-07 0)
(271.363 7.42032e-07 0)
(270.997 9.52425e-07 0)
(270.621 1.16288e-06 0)
(270.095 1.24102e-06 0)
(268.886 1.27775e-06 0)
(265.323 1.30011e-06 0)
(253.178 1.36883e-06 0)
(209.791 1.13614e-06 0)
(93.7575 5.46723e-07 0)
(22.7548 1.4881e-07 0)
(2.83356 1.49448e-08 0)
(0.279754 8.36984e-10 0)
(0.0290057 6.47544e-11 0)
(0.00304931 -1.42998e-11 0)
(0.000320839 -1.67176e-11 0)
(3.37474e-05 -2.11483e-11 0)
(3.54235e-06 -2.60283e-12 0)
(3.64227e-07 8.30017e-13 0)
(3.34564e-08 -3.45634e-13 0)
(2.72787e-09 5.37198e-13 0)
(2.4507e-10 -1.28128e-12 0)
(2.11661e-11 3.28709e-13 0)
(2.88266e-12 -1.44717e-12 0)
(1.61626e-12 8.03901e-14 0)
(-1.12342e-13 -1.18367e-12 0)
(1.34234e-13 1.18067e-12 0)
(6.33816e-13 3.59221e-13 0)
(-1.07737e-12 8.15323e-13 0)
(1.18709e-12 -1.56703e-13 0)
(-8.69017e-13 9.83407e-14 0)
(-4.02701e-14 -4.69818e-13 0)
(1.67383e-12 4.77697e-13 0)
(1.11145e-11 -7.13773e-13 0)
(8.32406e-11 1.48532e-13 0)
(5.05725e-10 3.56594e-13 0)
(3.03953e-09 1.23816e-12 0)
(1.859e-08 4.96956e-13 0)
(1.0978e-07 -1.56616e-12 0)
(5.50146e-07 8.34875e-13 0)
(2.41288e-06 -9.26708e-12 0)
(1.00462e-05 4.96227e-12 0)
(4.04956e-05 1.14134e-11 0)
(0.000158582 1.25334e-12 0)
(0.000603304 1.94959e-11 0)
(0.00222794 -2.50857e-11 0)
(0.00797873 6.22496e-11 0)
(0.027681 -1.08492e-10 0)
(0.0929452 2.00567e-10 0)
(0.301819 -1.56616e-10 0)
(0.94778 1.52184e-10 0)
(2.88997 1.9897e-10 0)
(8.81518 -2.25021e-10 0)
(19.045 3.57728e-09 0)
(26.9705 -1.40521e-09 0)
(34.9646 4.9074e-09 0)
(43.7043 2.05745e-09 0)
(53.1406 2.81306e-09 0)
(63.1454 4.04022e-09 0)
(73.5854 2.99572e-09 0)
(84.3549 4.71089e-09 0)
(95.3736 4.20178e-09 0)
(106.579 4.85104e-09 0)
(117.923 5.75235e-09 0)
(129.363 5.55076e-09 0)
(140.867 9.51094e-09 0)
(152.403 3.99958e-09 0)
(163.942 2.7365e-08 0)
(175.45 -1.64428e-08 0)
(186.892 5.96702e-08 0)
(198.217 -3.70368e-08 0)
(209.35 1.11258e-07 0)
(220.175 -1.08421e-07 0)
(230.509 1.27301e-07 0)
(240.086 9.10486e-09 0)
(248.581 4.89502e-08 0)
(255.623 -1.56567e-07 0)
(261.063 2.24366e-07 0)
(264.773 1.48839e-08 0)
(266.573 1.10494e-07 0)
(267.399 -1.95774e-07 0)
(267.984 3.39147e-08 0)
(269.085 9.84969e-08 0)
(268.607 1.2583e-07 0)
(270.238 1.24228e-07 0)
(269.307 8.99396e-08 0)
(270.907 1.13171e-07 0)
(271.148 -3.798e-08 0)
(272.37 -6.79637e-08 0)
(272.807 -2.14331e-07 0)
(273.904 -2.48137e-07 0)
(274.349 -2.93292e-07 0)
(275.075 -3.11375e-07 0)
(275.091 -3.12719e-07 0)
(275.08 -2.98792e-07 0)
(274.804 -2.58423e-07 0)
(274.318 -1.73467e-07 0)
(273.716 -5.39722e-08 0)
(273.054 1.13559e-07 0)
(272.394 3.0616e-07 0)
(271.812 4.6181e-07 0)
(271.363 5.82699e-07 0)
(270.997 6.59117e-07 0)
(270.621 7.58479e-07 0)
(270.095 8.70918e-07 0)
(268.886 9.99539e-07 0)
(265.323 1.12772e-06 0)
(253.178 1.20815e-06 0)
(209.791 9.80005e-07 0)
(93.7575 2.54309e-07 0)
(22.7548 7.51757e-08 0)
(2.83356 2.64067e-09 0)
(0.279754 9.53397e-11 0)
(0.0290057 -1.70422e-11 0)
(0.00304931 -7.51475e-13 0)
(0.000320839 -6.16537e-12 0)
(3.37474e-05 -7.6674e-12 0)
(3.54238e-06 -4.68889e-12 0)
(3.64227e-07 -8.05943e-13 0)
(3.34558e-08 -1.11233e-12 0)
(2.72654e-09 -1.56009e-12 0)
(2.44926e-10 -1.39829e-12 0)
(2.14042e-11 -1.90412e-12 0)
(2.64281e-12 -1.19972e-12 0)
(9.7256e-13 -1.70555e-12 0)
(-4.55495e-13 -1.58285e-12 0)
)
;

boundaryField
{
    sides1
    {
        type            zeroGradient;
    }
    sides2
    {
        type            zeroGradient;
    }
    empty
    {
        type            empty;
    }
}


// ************************************************************************* //
