/*--------------------------------*- C++ -*----------------------------------*\
| =========                 |                                                 |
| \\      /  F ield         | OpenFOAM: The Open Source CFD Toolbox           |
|  \\    /   O peration     | Version:  3.0.0                                 |
|   \\  /    A nd           | Web:      www.OpenFOAM.org                      |
|    \\/     M anipulation  |                                                 |
\*---------------------------------------------------------------------------*/
FoamFile
{
    version     2.0;
    format      ascii;
    class       surfaceScalarField;
    location    "0.00025";
    object      phi;
}
// * * * * * * * * * * * * * * * * * * * * * * * * * * * * * * * * * * * * * //

dimensions      [1 0 -1 0 0 0 0];

internalField   nonuniform List<scalar> 
1890
(
1.30451e-15
-1.00614e-16
7.49401e-15
-4.85723e-17
4.28338e-14
3.81639e-17
2.41914e-13
4.85723e-17
1.34898e-12
-2.77556e-17
7.0096e-12
-1.21431e-17
3.26455e-11
2.02963e-16
1.36357e-10
3.03577e-16
5.34251e-10
6.74807e-16
2.02182e-09
3.83721e-15
7.44951e-09
-5.84255e-15
2.67675e-08
6.6197e-15
9.37812e-08
-6.72032e-15
3.20189e-07
-6.11317e-15
1.06462e-06
1.8938e-14
3.445e-06
-2.55039e-14
1.08418e-05
2.64823e-14
3.31611e-05
-1.29063e-15
9.8509e-05
-4.38e-14
0.000282603
6.88078e-14
0.000775111
-9.57342e-14
0.00161522
1.98603e-13
0.0022354
-5.04952e-13
0.00279001
8.88184e-13
0.00335937
-6.70863e-13
0.00394238
5.57265e-13
0.00452833
-5.33907e-13
0.00510677
2.57443e-13
0.00566986
-1.58432e-14
0.00621198
1.99597e-14
0.00672923
2.17101e-15
0.00721907
5.22152e-14
0.00767991
-2.67885e-14
0.00811085
8.23803e-14
0.00851154
4.01415e-14
0.00888198
5.86597e-14
0.0092225
3.02544e-14
0.0095336
2.31297e-13
0.00981597
-3.10548e-13
0.0100704
8.51606e-13
0.0102977
-7.1797e-13
0.0104989
8.25044e-13
0.0106748
-6.38887e-13
0.0108262
2.1611e-12
0.0109541
-3.15901e-12
0.0110594
3.38349e-12
0.0111431
-1.61771e-12
0.0112065
2.00934e-12
0.0112515
-9.07052e-13
0.0112807
-2.57148e-12
0.0112967
3.79245e-12
0.0113034
4.42967e-12
0.0113026
-6.17241e-12
0.0113
-2.45426e-12
0.0112974
5.69652e-12
0.011292
2.58363e-12
0.0112821
-5.9882e-13
0.0112717
-1.62484e-12
0.011252
-1.84749e-12
0.0112305
-1.24534e-12
0.0111865
-1.60707e-12
0.011135
-1.49508e-12
0.0110557
-1.7665e-12
0.0109457
-2.63506e-12
0.010818
-2.86096e-12
0.0106414
-3.91444e-12
0.0104354
-4.3681e-12
0.0101958
-3.23216e-12
0.00992871
-3.03329e-12
0.00964197
-2.92143e-12
0.00934596
-3.04693e-12
0.0090477
-3.10994e-12
0.00876202
-2.94919e-12
0.00849693
-2.91353e-12
0.00825746
-2.59099e-12
0.0080463
-1.17342e-12
0.0078653
3.55565e-13
0.00771434
1.64786e-12
0.0075918
1.37861e-12
0.007495
1.93441e-12
0.0074208
2.49347e-12
0.00736593
2.73277e-12
0.00732774
2.89826e-12
0.00730288
3.40304e-12
0.0072846
5.20584e-12
0.00726988
6.15028e-12
0.00724886
6.71545e-12
0.00719028
9.93162e-12
0.00700501
1.3429e-11
0.0063851
1.4904e-11
0.00392097
1.91312e-11
0.00099095
4.04925e-12
0.000207109
3.97669e-13
3.08491e-05
9.44006e-14
3.43657e-06
-6.38075e-15
3.62863e-07
-2.25297e-16
3.8319e-08
-1.89085e-16
4.04679e-09
1.14492e-16
4.33299e-10
-4.55365e-17
-9.28077e-17
1.43982e-15
2.60209e-17
7.58074e-15
-7.11237e-17
4.30662e-14
-4.16334e-17
2.41859e-13
-1.04083e-17
1.34866e-12
7.45931e-17
7.00856e-12
5.77663e-16
3.26431e-11
2.03136e-15
1.36357e-10
-9.67976e-16
5.34255e-10
4.92661e-16
2.02183e-09
-3.4573e-15
7.4495e-09
3.04097e-15
2.67676e-08
-7.76115e-15
9.37812e-08
1.44763e-14
3.20189e-07
-4.57273e-14
1.06462e-06
6.72726e-14
3.445e-06
-6.87644e-14
1.08418e-05
3.06578e-14
3.31611e-05
4.5474e-14
9.8509e-05
-1.96865e-13
0.000282603
3.31067e-13
0.000775111
-2.72182e-13
0.00161522
2.26229e-13
0.0022354
-1.28054e-13
0.00279001
4.62127e-13
0.00335937
-7.48134e-14
0.00394238
4.33019e-13
0.00452833
-2.85243e-13
0.00510677
1.47004e-13
0.00566986
-1.30711e-14
0.00621198
6.84817e-14
0.00672923
1.06135e-13
0.00721907
6.23408e-14
0.00767991
1.33209e-13
0.00811085
5.18223e-14
0.00851154
8.04322e-14
0.00888198
1.5944e-13
0.0092225
1.08591e-13
0.0095336
2.84077e-13
0.00981597
-7.21107e-14
0.0100704
7.71766e-13
0.0102977
-5.34451e-13
0.0104989
1.00325e-12
0.0106748
-3.35145e-13
0.0108262
9.45572e-13
0.0109541
-8.87558e-13
0.0110594
1.14132e-12
0.0111431
-3.47192e-13
0.0112065
-1.12631e-12
0.0112515
3.53807e-12
0.0112807
-5.93958e-12
0.0112967
7.71667e-12
0.0113034
2.50603e-12
0.0113026
-5.86213e-12
0.0113
-5.82642e-13
0.0112974
5.56796e-12
0.011292
1.03587e-12
0.0112821
-1.01777e-12
0.0112717
-9.13614e-13
0.011252
-6.94859e-13
0.0112305
-6.02203e-13
0.0111865
-5.75812e-13
0.011135
-1.41796e-12
0.0110557
-1.19784e-12
0.0109457
-3.13631e-12
0.010818
-2.56001e-12
0.0106414
-3.30195e-12
0.0104354
-3.1122e-12
0.0101958
-1.63189e-12
0.00992871
-1.45423e-12
0.00964197
-1.24685e-12
0.00934596
-1.52824e-12
0.0090477
-1.74697e-12
0.00876202
-1.62967e-12
0.00849693
-1.41615e-12
0.00825746
-6.11883e-13
0.0080463
-3.72596e-13
0.0078653
8.50045e-13
0.00771434
2.37959e-12
0.0075918
2.60881e-12
0.007495
3.50469e-12
0.0074208
3.82268e-12
0.00736593
5.11874e-12
0.00732774
5.54499e-12
0.00730288
6.61806e-12
0.0072846
7.88511e-12
0.00726988
9.11896e-12
0.00724886
8.09093e-12
0.00719028
8.28688e-12
0.00700501
8.00427e-12
0.0063851
9.58773e-12
0.00392097
8.21118e-12
0.00099095
2.80293e-12
0.000207109
9.94636e-13
3.08491e-05
7.30048e-14
3.43657e-06
1.24295e-14
3.62863e-07
9.70795e-16
3.8319e-08
2.35489e-16
4.04679e-09
-1.33791e-16
4.33299e-10
-9.58435e-17
-4.33681e-17
1.17614e-15
-5.37764e-17
7.52523e-15
-1.56125e-17
4.30732e-14
-7.97973e-17
2.42046e-13
-1.38778e-17
1.3497e-12
-7.80626e-17
7.01305e-12
3.46945e-17
3.26534e-11
-3.95517e-16
1.36358e-10
-2.04003e-15
5.34259e-10
-4.75314e-15
2.02182e-09
3.747e-16
7.44951e-09
-1.6185e-15
2.67675e-08
1.11369e-14
9.37812e-08
-9.36057e-15
3.20189e-07
-1.87211e-14
1.06462e-06
5.96155e-14
3.445e-06
-9.01484e-14
1.08418e-05
9.38694e-14
3.31611e-05
-1.05872e-13
9.8509e-05
1.33888e-13
0.000282603
-1.45876e-13
0.000775111
2.1403e-13
0.00161522
-2.47783e-13
0.0022354
6.45055e-13
0.00279001
-4.80095e-13
0.00335937
6.75236e-13
0.00394238
-8.55305e-14
0.00452833
4.02386e-13
0.00510677
-7.18436e-14
0.00566986
1.26808e-13
0.00621198
3.39841e-14
0.00672923
2.31848e-13
0.00721907
7.52974e-14
0.00767991
1.62784e-13
0.00811085
1.35295e-13
0.00851154
1.09333e-13
0.00888198
1.53291e-13
0.0092225
1.75105e-13
0.0095336
2.44859e-13
0.00981597
3.23127e-14
0.0100704
6.28171e-13
0.0102977
-3.51564e-13
0.0104989
7.77572e-13
0.0106748
4.22776e-13
0.0108262
-4.48514e-13
0.0109541
1.29278e-12
0.0110594
-8.54045e-13
0.0111431
1.53794e-12
0.0112065
-1.66881e-12
0.0112515
2.74643e-12
0.0112807
-1.06132e-12
0.0112967
6.68433e-12
0.0113034
-2.29376e-12
0.0113026
-3.15326e-13
0.0113
3.57306e-12
0.0112974
-1.68295e-12
0.011292
-1.61516e-12
0.0112821
-2.38203e-13
0.0112717
8.57144e-13
0.011252
6.80066e-13
0.0112305
-2.44554e-13
0.0111865
-6.49566e-13
0.011135
-1.46281e-12
0.0110557
-1.60323e-12
0.0109457
-1.81309e-12
0.010818
-1.27945e-12
0.0106414
-1.49707e-12
0.0104354
-1.6783e-12
0.0101958
-1.22884e-12
0.00992871
-1.89633e-12
0.00964197
-1.24058e-12
0.00934596
-1.06075e-12
0.0090477
-1.29628e-12
0.00876202
-2.05114e-12
0.00849693
-1.42462e-12
0.00825746
-5.54503e-13
0.0080463
-6.1854e-13
0.0078653
6.51457e-13
0.00771434
7.04306e-13
0.0075918
2.55817e-12
0.007495
3.57112e-12
0.0074208
5.20086e-12
0.00736593
5.40089e-12
0.00732774
6.1546e-12
0.00730288
8.2077e-12
0.0072846
8.55744e-12
0.00726988
8.34421e-12
0.00724886
7.87461e-12
0.00719028
7.68308e-12
0.00700501
8.00006e-12
0.0063851
7.17759e-12
0.00392097
1.02628e-11
0.00099095
2.77174e-12
0.000207109
5.65117e-13
3.08491e-05
1.14018e-13
3.43657e-06
1.70499e-14
3.62863e-07
1.51615e-15
3.8319e-08
-2.62811e-16
4.04679e-09
1.01481e-16
4.33298e-10
-9.93129e-17
-9.80119e-17
1.2941e-15
-3.46945e-17
7.38992e-15
2.08167e-17
4.30697e-14
-1.21431e-17
2.41956e-13
-6.93889e-18
1.34939e-12
-7.63278e-17
7.01138e-12
1.38778e-17
3.2648e-11
-4.44089e-16
1.3635e-10
-1.05124e-15
5.34243e-10
-2.01748e-15
2.02183e-09
-4.14599e-16
7.44953e-09
-7.06032e-15
2.67676e-08
1.38483e-14
9.37811e-08
-1.32568e-14
3.20189e-07
1.46185e-14
1.06462e-06
7.14012e-15
3.445e-06
-1.73386e-14
1.08418e-05
1.69916e-14
3.31611e-05
-3.77233e-14
9.8509e-05
1.283e-13
0.000282603
-1.9942e-13
0.000775111
2.63525e-13
0.00161522
-1.38327e-14
0.0022354
2.83147e-13
0.00279001
-1.99143e-13
0.00335937
6.08295e-13
0.00394238
-1.96472e-13
0.00452833
4.19225e-13
0.00510677
-4.588e-14
0.00566986
1.41861e-13
0.00621198
2.78415e-13
0.00672923
5.34243e-14
0.00721907
1.97935e-13
0.00767991
1.05149e-13
0.00811085
1.11536e-13
0.00851154
1.40858e-13
0.00888198
7.68214e-14
0.0092225
1.96745e-13
0.0095336
2.47621e-13
0.00981597
3.48792e-14
0.0100704
5.53337e-13
0.0102977
-1.49729e-13
0.0104989
7.30721e-13
0.0106748
-2.88612e-13
0.0108262
8.1126e-13
0.0109541
-8.59823e-13
0.0110594
1.49562e-12
0.0111431
-2.91888e-13
0.0112065
2.50636e-13
0.0112515
6.37546e-13
0.0112807
4.33268e-13
0.0112967
1.77933e-12
0.0113034
-2.35498e-12
0.0113026
2.08393e-12
0.0113
1.47679e-12
0.0112974
3.77356e-13
0.011292
-4.59684e-13
0.0112821
-1.05973e-13
0.0112717
7.79627e-13
0.011252
5.07439e-13
0.0112305
2.13381e-13
0.0111865
8.80034e-14
0.011135
-6.53023e-13
0.0110557
-4.755e-13
0.0109457
-2.34394e-13
0.010818
2.88933e-13
0.0106414
-3.8889e-13
0.0104354
3.87595e-13
0.0101958
-1.84697e-12
0.00992871
-2.38989e-12
0.00964197
-2.24083e-12
0.00934596
-2.58211e-12
0.0090477
-1.91787e-12
0.00876202
-2.14181e-12
0.00849693
-2.08918e-12
0.00825746
-1.28534e-12
0.0080463
-1.05105e-12
0.0078653
3.66556e-13
0.00771434
-5.83865e-14
0.0075918
1.87273e-12
0.007495
1.57726e-12
0.0074208
3.95657e-12
0.00736593
4.13284e-12
0.00732774
6.09502e-12
0.00730288
8.23519e-12
0.0072846
9.48524e-12
0.00726988
9.24837e-12
0.00724886
1.15668e-11
0.00719028
1.34379e-11
0.00700501
1.53013e-11
0.0063851
1.38516e-11
0.00392097
1.02772e-11
0.00099095
4.68899e-12
0.000207109
1.54776e-12
3.08491e-05
2.24942e-13
3.43657e-06
2.44661e-14
3.62863e-07
1.04344e-15
3.8319e-08
-1.59161e-16
4.04679e-09
-4.09828e-17
4.33299e-10
-6.15827e-17
-6.41848e-17
1.33574e-15
-2.94903e-17
7.4489e-15
5.20417e-18
4.31356e-14
1.56125e-17
2.41931e-13
-6.76542e-17
1.34935e-12
-2.60209e-17
7.01083e-12
-3.1225e-17
3.26463e-11
-8.84709e-17
1.36348e-10
-6.55725e-16
5.34243e-10
2.05565e-15
2.02184e-09
-4.89712e-15
7.44952e-09
6.1548e-15
2.67676e-08
-1.53523e-15
9.37811e-08
-2.84495e-16
3.20189e-07
-8.1532e-17
1.06462e-06
7.37084e-15
3.445e-06
3.72619e-15
1.08418e-05
-8.37698e-15
3.31611e-05
2.76307e-14
9.8509e-05
1.12584e-15
0.000282603
3.22485e-15
0.000775111
6.93976e-14
0.00161522
5.21666e-14
0.0022354
3.0923e-13
0.00279001
1.96459e-13
0.00335937
1.09733e-13
0.00394238
1.83973e-13
0.00452833
2.92657e-13
0.00510677
1.76603e-13
0.00566986
1.42907e-13
0.00621198
2.77864e-13
0.00672923
8.8372e-14
0.00721907
2.05004e-13
0.00767991
9.8083e-14
0.00811085
1.83806e-13
0.00851154
1.44522e-13
0.00888198
1.9881e-13
0.0092225
5.99052e-14
0.0095336
3.59717e-13
0.00981597
-4.69087e-14
0.0100704
5.39816e-13
0.0102977
-1.93074e-13
0.0104989
8.37786e-13
0.0106748
-5.58637e-13
0.0108262
8.7901e-13
0.0109541
-9.12247e-13
0.0110594
1.1565e-12
0.0111431
-1.09612e-13
0.0112065
8.66452e-13
0.0112515
1.19333e-12
0.0112807
-1.48436e-12
0.0112967
1.33521e-13
0.0113034
1.24623e-12
0.0113026
-1.20098e-12
0.0113
-1.88625e-12
0.0112974
1.48864e-12
0.011292
1.24165e-12
0.0112821
1.26377e-13
0.0112717
6.13765e-13
0.011252
1.21447e-13
0.0112305
8.46476e-13
0.0111865
8.23529e-13
0.011135
1.1284e-13
0.0110557
1.11134e-13
0.0109457
-7.19808e-13
0.010818
7.77139e-14
0.0106414
-1.13796e-12
0.0104354
-3.64881e-13
0.0101958
-3.87859e-13
0.00992871
-5.59479e-13
0.00964197
-2.77288e-13
0.00934596
-6.79005e-13
0.0090477
-1.46379e-12
0.00876202
-1.47673e-12
0.00849693
-1.21279e-12
0.00825746
-9.11708e-13
0.0080463
-1.55334e-12
0.0078653
-1.4072e-12
0.00771434
-1.87814e-12
0.0075918
7.98554e-14
0.007495
5.44986e-13
0.0074208
2.78243e-12
0.00736593
4.00242e-12
0.00732774
6.92684e-12
0.00730288
7.95585e-12
0.0072846
8.13488e-12
0.00726988
7.92189e-12
0.00724886
8.13216e-12
0.00719028
8.80294e-12
0.00700501
8.78017e-12
0.0063851
9.7967e-12
0.00392097
1.32729e-11
0.00099095
7.46024e-12
0.000207109
9.82352e-13
3.08491e-05
1.12107e-13
3.43657e-06
3.65528e-15
3.62863e-07
4.89843e-16
3.8319e-08
1.95156e-16
4.04679e-09
-2.24213e-16
4.33299e-10
6.57027e-17
1.12757e-17
1.50921e-15
6.245e-17
7.66401e-15
1.73472e-17
4.30662e-14
4.51028e-17
2.41796e-13
-1.38778e-17
1.34931e-12
-1.56125e-17
7.01051e-12
1.80411e-16
3.26445e-11
7.94503e-16
1.36345e-10
-3.72966e-16
5.3425e-10
8.88178e-16
2.02183e-09
-9.7318e-16
7.44953e-09
3.4972e-15
2.67676e-08
-7.4888e-15
9.37811e-08
2.51708e-15
3.20189e-07
9.22006e-15
1.06462e-06
-1.45821e-14
3.445e-06
2.77226e-14
1.08418e-05
-3.34715e-14
3.31611e-05
4.28806e-14
9.8509e-05
-5.63005e-14
0.000282603
8.10862e-14
0.000775111
-1.54477e-14
0.00161522
8.52669e-14
0.0022354
-3.05016e-14
0.00279001
4.88685e-13
0.00335937
-3.05289e-13
0.00394238
3.45152e-13
0.00452833
1.84399e-13
0.00510677
2.10056e-13
0.00566986
2.27271e-13
0.00621198
8.83859e-14
0.00672923
2.07272e-13
0.00721907
8.5168e-14
0.00767991
2.17095e-13
0.00811085
1.69958e-13
0.00851154
1.67455e-13
0.00888198
2.4385e-13
0.0092225
1.24172e-13
0.0095336
3.18775e-13
0.00981597
-8.80719e-15
0.0100704
5.91529e-13
0.0102977
-1.93378e-13
0.0104989
7.78391e-13
0.0106748
-3.14622e-13
0.0108262
8.81349e-13
0.0109541
-6.32554e-13
0.0110594
4.48189e-13
0.0111431
-2.88271e-13
0.0112065
4.61449e-13
0.0112515
-1.00816e-12
0.0112807
1.08934e-12
0.0112967
-6.1372e-13
0.0113034
6.87846e-13
0.0113026
-1.58084e-12
0.0113
4.1265e-13
0.0112974
4.69087e-14
0.011292
1.13576e-12
0.0112821
5.70384e-13
0.0112717
1.31258e-12
0.011252
1.3047e-12
0.0112305
1.5142e-12
0.0111865
1.3267e-12
0.011135
6.67907e-13
0.0110557
5.67291e-13
0.0109457
-5.71872e-13
0.010818
1.40005e-13
0.0106414
-8.63727e-13
0.0104354
-6.19747e-13
0.0101958
-8.68928e-13
0.00992871
-7.55384e-13
0.00964197
-1.26843e-12
0.00934596
-1.8453e-12
0.0090477
-2.28257e-12
0.00876202
-2.04205e-12
0.00849693
-1.48613e-12
0.00825746
-1.23171e-12
0.0080463
-7.46137e-13
0.0078653
-1.38298e-12
0.00771434
-9.69452e-13
0.0075918
1.38601e-12
0.007495
3.42982e-12
0.0074208
5.89892e-12
0.00736593
7.00401e-12
0.00732774
9.83534e-12
0.00730288
9.75558e-12
0.0072846
1.011e-11
0.00726988
9.92939e-12
0.00724886
9.34324e-12
0.00719028
9.19867e-12
0.00700501
1.00738e-11
0.0063851
5.17612e-12
0.00392097
-7.68474e-14
0.00099095
7.23512e-13
0.000207109
4.71567e-13
3.08491e-05
8.59905e-14
3.43657e-06
2.76675e-14
3.62863e-07
2.25731e-16
3.8319e-08
3.57353e-16
4.04679e-09
2.77556e-17
4.33299e-10
1.34007e-16
4.14165e-17
1.3739e-15
2.60209e-17
7.64666e-15
3.46945e-18
4.29587e-14
3.81639e-17
2.41734e-13
-3.81639e-17
1.3493e-12
6.93889e-17
7.01161e-12
3.46945e-18
3.26468e-11
6.40113e-16
1.36346e-10
5.0307e-16
5.34241e-10
4.89019e-15
2.02183e-09
-3.17454e-16
7.44953e-09
-1.84575e-15
2.67676e-08
-6.11317e-15
9.37811e-08
4.05925e-16
3.20189e-07
2.77833e-14
1.06462e-06
-6.61259e-14
3.445e-06
8.45053e-14
1.08418e-05
-7.11948e-14
3.31611e-05
6.79231e-14
9.8509e-05
-7.68777e-14
0.000282603
1.34805e-13
0.000775111
-4.30055e-14
0.00161522
1.11921e-13
0.0022354
-6.63879e-15
0.00279001
4.57955e-13
0.00335937
-1.69476e-13
0.00394238
2.86333e-13
0.00452833
1.45208e-13
0.00510677
3.09238e-13
0.00566986
1.70306e-13
0.00621198
1.44988e-13
0.00672923
2.22249e-13
0.00721907
9.92244e-14
0.00767991
2.04841e-13
0.00811085
1.68798e-13
0.00851154
2.00276e-13
0.00888198
2.61811e-13
0.0092225
2.1266e-13
0.0095336
3.3755e-13
0.00981597
6.23156e-14
0.0100704
6.43916e-13
0.0102977
-3.71821e-13
0.0104989
1.06855e-12
0.0106748
-9.76743e-13
0.0108262
2.03852e-12
0.0109541
-1.52016e-12
0.0110594
1.95081e-12
0.0111431
-1.34241e-12
0.0112065
3.2536e-12
0.0112515
-4.79292e-12
0.0112807
4.29247e-12
0.0112967
-1.6901e-12
0.0113034
2.02816e-12
0.0113026
-3.6109e-12
0.0113
2.28701e-12
0.0112974
-3.09978e-14
0.011292
1.16849e-12
0.0112821
1.08267e-12
0.0112717
1.28177e-12
0.011252
1.44978e-12
0.0112305
1.487e-12
0.0111865
1.4623e-12
0.011135
1.06769e-12
0.0110557
1.24537e-12
0.0109457
-5.00692e-13
0.010818
1.27271e-13
0.0106414
-7.08623e-13
0.0104354
-7.77081e-13
0.0101958
-1.12823e-12
0.00992871
-1.22887e-12
0.00964197
-2.45831e-12
0.00934596
-2.71241e-12
0.0090477
-3.18725e-12
0.00876202
-2.75697e-12
0.00849693
-2.44778e-12
0.00825746
-1.72503e-12
0.0080463
4.74093e-13
0.0078653
7.75883e-13
0.00771434
1.68832e-12
0.0075918
3.32762e-12
0.007495
4.88726e-12
0.0074208
6.01257e-12
0.00736593
6.35127e-12
0.00732774
8.02312e-12
0.00730288
8.04395e-12
0.0072846
9.32997e-12
0.00726988
1.02571e-11
0.00724886
1.09722e-11
0.00719028
1.0941e-11
0.00700501
1.12045e-11
0.0063851
1.02585e-11
0.00392097
2.23479e-11
0.00099095
1.07743e-11
0.000207109
7.07148e-13
3.08491e-05
5.43894e-14
3.43657e-06
8.63437e-15
3.62863e-07
1.77787e-15
3.8319e-08
3.34151e-16
4.04679e-09
4.46691e-17
4.33299e-10
2.65196e-16
1.45066e-16
1.32186e-15
-5.0307e-17
7.66054e-15
1.9082e-17
4.28269e-14
5.55112e-17
2.41859e-13
-1.04083e-17
1.34948e-12
6.41848e-17
7.01163e-12
6.41848e-17
3.26489e-11
-3.05311e-16
1.36354e-10
-3.97252e-16
5.34257e-10
4.92661e-16
2.02182e-09
2.72699e-15
7.44952e-09
-8.1532e-17
2.67676e-08
-1.40513e-15
9.37811e-08
-3.54924e-15
3.20189e-07
2.4215e-14
1.06462e-06
-4.2813e-14
3.445e-06
4.56093e-14
1.08418e-05
-2.29122e-14
3.31611e-05
1.61485e-14
9.8509e-05
1.6636e-15
0.000282603
5.23817e-14
0.000775111
6.33868e-14
0.00161522
-9.41278e-14
0.0022354
3.64583e-13
0.00279001
-5.13809e-13
0.00335937
4.85282e-13
0.00394238
-5.40765e-14
0.00452833
2.07751e-13
0.00510677
2.05948e-13
0.00566986
3.60718e-14
0.00621198
2.42916e-13
0.00672923
1.15049e-13
0.00721907
2.20136e-13
0.00767991
5.74011e-14
0.00811085
2.20979e-13
0.00851154
1.14818e-13
0.00888198
1.88676e-13
0.0092225
2.39643e-13
0.0095336
1.99287e-13
0.00981597
1.44455e-13
0.0100704
5.71585e-13
0.0102977
-4.18805e-13
0.0104989
1.51979e-12
0.0106748
-1.95567e-12
0.0108262
3.5209e-12
0.0109541
-3.12351e-12
0.0110594
5.6663e-12
0.0111431
-3.56313e-12
0.0112065
6.52056e-12
0.0112515
-9.43961e-12
0.0112807
6.83845e-12
0.0112967
-5.67326e-12
0.0113034
7.53446e-12
0.0113026
-1.02421e-11
0.0113
-2.15706e-12
0.0112974
6.35931e-12
0.011292
4.02173e-12
0.0112821
1.04306e-12
0.0112717
1.50477e-13
0.011252
-5.21199e-13
0.0112305
5.18631e-13
0.0111865
1.19458e-12
0.011135
1.76278e-12
0.0110557
2.11059e-12
0.0109457
-4.29498e-13
0.010818
-1.41003e-12
0.0106414
-2.23823e-12
0.0104354
-2.04682e-12
0.0101958
-2.18118e-12
0.00992871
-2.8597e-12
0.00964197
-3.28915e-12
0.00934596
-3.2004e-12
0.0090477
-3.17855e-12
0.00876202
-2.84915e-12
0.00849693
-2.92714e-12
0.00825746
-2.53193e-12
0.0080463
-3.49579e-13
0.0078653
1.77844e-12
0.00771434
3.60388e-12
0.0075918
4.84053e-12
0.007495
7.08866e-12
0.0074208
7.72283e-12
0.00736593
9.23563e-12
0.00732774
8.92087e-12
0.00730288
9.51104e-12
0.0072846
9.42604e-12
0.00726988
1.04084e-11
0.00724886
1.10035e-11
0.00719028
1.21916e-11
0.00700501
1.27366e-11
0.0063851
1.40767e-11
0.00392097
8.62561e-12
0.00099095
5.144e-12
0.000207109
8.50492e-13
3.08491e-05
1.04024e-13
3.43657e-06
7.07173e-14
3.62863e-07
3.93609e-15
3.8319e-08
-5.42101e-18
4.04678e-09
2.47198e-16
4.33298e-10
1.35959e-16
7.89299e-17
1.47798e-15
5.55112e-17
7.67442e-15
-3.46945e-18
4.30038e-14
-2.25514e-17
2.41782e-13
2.60209e-17
1.34948e-12
-3.1225e-17
7.01137e-12
-1.26635e-16
3.26472e-11
-2.96638e-16
1.36353e-10
-8.39606e-16
5.34257e-10
-6.92155e-16
2.02182e-09
3.18669e-15
7.44951e-09
-4.9457e-15
2.67676e-08
8.81413e-15
9.37812e-08
-6.62838e-15
3.20189e-07
6.75328e-15
1.06462e-06
-1.38292e-14
3.445e-06
2.98303e-14
1.08418e-05
-5.80612e-14
3.31611e-05
1.10521e-13
9.8509e-05
-1.33194e-13
0.000282603
1.61966e-13
0.000775111
-4.8057e-14
0.00161522
-4.25129e-14
0.0022354
3.92492e-13
0.00279001
-5.38809e-13
0.00335937
6.44618e-13
0.00394238
-1.20854e-13
0.00452833
1.63073e-13
0.00510677
1.77778e-13
0.00566986
-3.58342e-14
0.00621198
2.25074e-13
0.00672923
1.11529e-13
0.00721907
1.91358e-13
0.00767991
1.49445e-13
0.00811085
1.08839e-13
0.00851154
2.16059e-13
0.00888198
1.22203e-13
0.0092225
2.67213e-13
0.0095336
2.13257e-13
0.00981597
8.43518e-14
0.0100704
7.05997e-13
0.0102977
-5.23808e-13
0.0104989
1.78838e-12
0.0106748
-2.01643e-12
0.0108262
3.66202e-12
0.0109541
-4.36855e-12
0.0110594
3.89492e-12
0.0111431
-6.48929e-12
0.0112065
7.19945e-12
0.0112515
-9.17082e-12
0.0112807
7.56667e-12
0.0112967
-5.28179e-12
0.0113034
1.2406e-11
0.0113026
-1.16944e-11
0.0113
-3.34297e-12
0.0112974
8.53052e-12
0.011292
4.40673e-12
0.0112821
5.83734e-13
0.0112717
-5.07443e-13
0.011252
-4.19577e-13
0.0112305
6.22383e-13
0.0111865
1.01997e-12
0.011135
2.19401e-12
0.0110557
1.9283e-12
0.0109457
-2.69086e-13
0.010818
-1.59928e-14
0.0106414
-3.41007e-12
0.0104354
-4.41438e-12
0.0101958
-4.80596e-12
0.00992871
-4.9376e-12
0.00964197
-5.05e-12
0.00934596
-4.90506e-12
0.0090477
-4.63752e-12
0.00876202
-4.5848e-12
0.00849693
-4.68193e-12
0.00825746
-4.46341e-12
0.0080463
-2.99837e-12
0.0078653
-9.41811e-13
0.00771434
1.47795e-12
0.0075918
3.67372e-12
0.007495
6.25245e-12
0.0074208
7.07126e-12
0.00736593
8.48214e-12
0.00732774
8.53509e-12
0.00730288
9.57805e-12
0.0072846
9.89351e-12
0.00726988
1.10562e-11
0.00724886
1.20727e-11
0.00719028
1.39599e-11
0.00700501
1.57399e-11
0.0063851
1.83873e-11
0.00392097
3.07303e-11
0.00099095
1.43989e-11
0.000207109
2.22438e-12
3.08491e-05
3.03576e-13
3.43657e-06
7.97648e-15
3.62863e-07
1.5168e-15
3.8319e-08
-3.90313e-18
4.04678e-09
2.63027e-16
4.33298e-10
-3.46945e-18
1.43115e-16
1.28023e-15
7.54258e-15
4.28615e-14
2.41869e-13
1.34931e-12
7.01088e-12
3.2646e-11
1.3635e-10
5.34256e-10
2.02183e-09
7.4495e-09
2.67676e-08
9.37812e-08
3.20189e-07
1.06462e-06
3.445e-06
1.08418e-05
3.31611e-05
9.8509e-05
0.000282603
0.000775111
0.00161522
0.0022354
0.00279001
0.00335937
0.00394238
0.00452833
0.00510677
0.00566986
0.00621198
0.00672923
0.00721907
0.00767991
0.00811085
0.00851154
0.00888198
0.0092225
0.0095336
0.00981597
0.0100704
0.0102977
0.0104989
0.0106748
0.0108262
0.0109541
0.0110594
0.0111431
0.0112065
0.0112515
0.0112807
0.0112967
0.0113034
0.0113026
0.0113
0.0112974
0.011292
0.0112821
0.0112717
0.011252
0.0112305
0.0111865
0.011135
0.0110557
0.0109457
0.010818
0.0106414
0.0104354
0.0101958
0.00992871
0.00964197
0.00934596
0.0090477
0.00876202
0.00849693
0.00825746
0.0080463
0.0078653
0.00771434
0.0075918
0.007495
0.0074208
0.00736593
0.00732774
0.00730288
0.0072846
0.00726988
0.00724886
0.00719028
0.00700501
0.0063851
0.00392097
0.00099095
0.000207109
3.08491e-05
3.43657e-06
3.62863e-07
3.8319e-08
4.04679e-09
4.33299e-10
)
;

boundaryField
{
    sides1
    {
        type            calculated;
        value           nonuniform List<scalar> 
20
(
5.16316e-11
5.16317e-11
5.16315e-11
5.16318e-11
5.16319e-11
5.16317e-11
5.16318e-11
5.16315e-11
5.16315e-11
5.16318e-11
-2.15106e-16
-3.53884e-16
-1.11022e-16
-3.36536e-16
-3.57353e-16
-4.30211e-16
-2.498e-16
-1.80411e-16
-3.40006e-16
-2.01228e-16
)
;
    }
    sides2
    {
        type            calculated;
        value           nonuniform List<scalar> 
200
(
3.46945e-17
3.46945e-18
1.04083e-17
-4.33681e-17
1.9082e-17
-4.16334e-17
4.11129e-16
2.34188e-16
8.10116e-16
-2.38698e-15
2.46331e-15
-3.16414e-15
1.63931e-15
1.24553e-15
-6.15133e-15
6.27623e-15
-8.51923e-15
1.46064e-15
4.66814e-15
-1.40079e-14
4.57325e-14
-1.32592e-13
3.92271e-13
-6.10871e-13
5.40843e-13
-3.61659e-13
2.19124e-13
-1.76668e-13
2.36096e-15
-2.68032e-14
1.10502e-15
-3.92898e-14
4.18771e-14
-6.8087e-14
3.11071e-14
-2.94244e-14
4.00027e-14
-1.90472e-13
4.50283e-13
-8.0968e-13
8.66376e-13
-6.33497e-13
5.57108e-13
-1.9039e-12
3.47669e-12
-3.52227e-12
2.41563e-12
-3.67119e-12
3.47959e-12
2.4457e-13
-1.63124e-12
-5.11345e-12
5.72855e-12
2.15079e-12
-3.38956e-12
-2.43043e-12
9.26277e-14
1.1781e-12
1.40806e-12
1.35808e-12
1.44509e-12
1.56832e-12
1.49852e-12
2.2051e-12
2.00658e-12
4.18201e-12
4.99589e-12
6.15008e-12
6.4222e-12
6.39406e-12
6.13703e-12
5.58897e-12
5.04836e-12
4.7614e-12
4.45338e-12
2.57377e-12
7.94888e-13
-6.08965e-13
-6.45642e-13
-1.52524e-12
-2.48359e-12
-2.545e-12
-2.8452e-12
-3.50238e-12
-4.30785e-12
-4.23696e-12
-4.38479e-12
-6.24857e-12
-8.80715e-12
-9.18712e-12
-7.07124e-12
-1.36663e-12
-2.48606e-13
-1.6785e-14
-3.14419e-17
6.70037e-17
7.28584e-17
-5.35596e-17
1.47235e-16
1.39645e-16
5.20417e-17
1.04083e-17
1.56125e-17
-6.93889e-18
1.73472e-17
-6.41848e-17
0
-2.34188e-16
-1.08941e-15
1.164e-15
-2.85882e-15
2.15453e-15
-1.47625e-15
2.38698e-15
-5.01509e-15
1.56038e-14
-2.97609e-14
4.85827e-14
-4.73475e-14
4.25094e-14
-6.7394e-15
-1.04933e-14
1.33405e-13
-1.29508e-13
1.94822e-13
-1.57461e-14
8.35183e-15
1.38304e-13
-3.31124e-14
1.1711e-13
1.15192e-13
9.06211e-14
1.63723e-13
8.75576e-14
1.64086e-13
1.29802e-13
1.36104e-13
2.49478e-13
-9.21771e-14
8.0289e-13
-9.30476e-13
1.86503e-12
-1.8958e-12
2.67523e-12
-1.8002e-12
1.08404e-12
-8.81928e-13
3.31405e-12
-5.91013e-12
4.68784e-12
-2.94483e-12
8.26239e-12
-5.85807e-12
-1.13764e-12
4.06718e-12
2.91208e-12
6.78218e-13
1.93189e-13
2.51011e-13
8.39439e-13
1.15168e-12
1.78477e-12
2.39787e-12
1.07283e-12
1.19223e-12
-1.96222e-12
-2.5437e-12
-5.11708e-12
-5.69278e-12
-7.01523e-12
-7.16361e-12
-6.84918e-12
-6.51574e-12
-6.33235e-12
-5.69843e-12
-4.04247e-12
-1.55211e-12
1.07415e-12
3.01847e-12
4.23929e-12
5.04219e-12
6.31624e-12
7.83615e-12
9.48728e-12
1.07522e-11
1.23612e-11
1.39906e-11
1.57464e-11
1.7289e-11
1.80386e-11
1.46647e-11
4.03863e-12
9.17627e-13
6.9338e-14
6.84348e-16
4.32814e-16
-3.70797e-17
1.75207e-16
9.99634e-17
3.25044e-16
)
;
    }
    empty
    {
        type            empty;
        value           nonuniform 0();
    }
}


// ************************************************************************* //
