/*--------------------------------*- C++ -*----------------------------------*\
| =========                 |                                                 |
| \\      /  F ield         | OpenFOAM: The Open Source CFD Toolbox           |
|  \\    /   O peration     | Version:  3.0.0                                 |
|   \\  /    A nd           | Web:      www.OpenFOAM.org                      |
|    \\/     M anipulation  |                                                 |
\*---------------------------------------------------------------------------*/
FoamFile
{
    version     2.0;
    format      ascii;
    class       volVectorField;
    location    "0.00025";
    object      U;
}
// * * * * * * * * * * * * * * * * * * * * * * * * * * * * * * * * * * * * * //

dimensions      [0 1 -1 0 0 0 0];

internalField   nonuniform List<vector> 
1000
(
(2.181e-12 -6.91887e-13 0)
(2.3286e-11 -7.87893e-14 0)
(1.2586e-10 -1.82383e-13 0)
(7.40752e-10 8.53551e-13 0)
(4.15845e-09 -4.25754e-13 0)
(2.39945e-08 7.90811e-13 0)
(1.32906e-07 -8.15265e-12 0)
(6.13539e-07 -4.68417e-12 0)
(2.50244e-06 -1.6005e-11 0)
(9.71632e-06 4.72269e-11 0)
(3.66146e-05 -4.9215e-11 0)
(0.000134505 6.28875e-11 0)
(0.00048185 -3.30635e-11 0)
(0.00168259 -2.46095e-11 0)
(0.00572331 1.21976e-10 0)
(0.0189506 -1.25071e-10 0)
(0.0610416 1.69716e-10 0)
(0.191191 -3.16253e-11 0)
(0.582313 -9.29692e-11 0)
(1.72654 2.79656e-10 0)
(5.08982 -9.17381e-10 0)
(13.4206 2.7125e-09 0)
(21.2643 -8.21522e-09 0)
(27.6213 1.3045e-08 0)
(34.3311 -1.17767e-08 0)
(41.5666 8.04151e-09 0)
(49.2878 -4.99239e-09 0)
(57.4012 4.11723e-09 0)
(65.8242 -5.25903e-11 0)
(74.4903 6.59815e-10 0)
(83.3474 -2.91161e-11 0)
(92.3547 1.02318e-09 0)
(101.48 -1.12164e-09 0)
(110.698 1.88024e-09 0)
(119.986 -8.76581e-10 0)
(129.327 8.60796e-10 0)
(138.704 -1.19733e-09 0)
(148.104 5.91915e-09 0)
(157.512 -1.44107e-08 0)
(166.914 2.67406e-08 0)
(176.295 -2.94933e-08 0)
(185.635 2.22584e-08 0)
(194.911 -2.01571e-08 0)
(204.087 7.10782e-08 0)
(213.114 -1.33761e-07 0)
(221.919 1.39631e-07 0)
(230.396 -9.85624e-08 0)
(238.406 1.54011e-07 0)
(245.764 -1.4972e-07 0)
(252.275 -1.08308e-08 0)
(257.73 7.33461e-08 0)
(261.962 2.32884e-07 0)
(264.937 -2.63864e-07 0)
(266.534 -9.98063e-08 0)
(267.447 1.57814e-07 0)
(267.982 1.1346e-07 0)
(268.378 -4.3592e-09 0)
(268.332 -5.51892e-08 0)
(268.928 -6.61607e-08 0)
(268.544 -6.38407e-08 0)
(269.832 -6.85354e-08 0)
(269.073 -7.43847e-08 0)
(270.586 -7.20055e-08 0)
(269.886 -1.06319e-07 0)
(270.812 -9.8396e-08 0)
(271.172 -2.08066e-07 0)
(272.016 -2.53768e-07 0)
(272.443 -3.19463e-07 0)
(273.272 -3.43094e-07 0)
(273.629 -3.51663e-07 0)
(274.223 -3.48581e-07 0)
(274.288 -3.2787e-07 0)
(274.354 -3.05957e-07 0)
(274.214 -2.97651e-07 0)
(273.895 -2.86479e-07 0)
(273.457 -1.69963e-07 0)
(272.941 -5.37914e-08 0)
(272.388 4.17382e-08 0)
(271.841 4.48967e-08 0)
(271.329 1.077e-07 0)
(270.879 1.77184e-07 0)
(270.507 1.82992e-07 0)
(270.228 2.05858e-07 0)
(270.057 2.5443e-07 0)
(269.93 3.13686e-07 0)
(269.772 3.09073e-07 0)
(269.48 3.20465e-07 0)
(268.682 4.5857e-07 0)
(266.013 6.5193e-07 0)
(257.065 6.9846e-07 0)
(225.861 6.02971e-07 0)
(125.654 1.61728e-07 0)
(33.444 3.65814e-08 0)
(5.15913 2.76912e-09 0)
(0.502576 9.57674e-13 0)
(0.0513087 -1.07686e-11 0)
(0.00540695 -1.15887e-11 0)
(0.000570253 8.53588e-12 0)
(6.0632e-05 -2.32771e-11 0)
(4.29559e-06 -2.21182e-11 0)
(3.55544e-12 -6.59496e-13 0)
(2.29895e-11 -2.11651e-12 0)
(1.30231e-10 -3.22161e-13 0)
(7.40966e-10 -6.33232e-14 0)
(4.15547e-09 1.84425e-13 0)
(2.39898e-08 -1.03593e-13 0)
(1.32874e-07 3.16348e-11 0)
(6.13539e-07 1.55667e-11 0)
(2.50244e-06 4.15415e-11 0)
(9.71659e-06 5.78095e-11 0)
(3.66141e-05 6.42042e-11 0)
(0.000134506 3.8378e-11 0)
(0.000481849 1.41312e-10 0)
(0.00168259 -3.52868e-10 0)
(0.00572331 7.60491e-10 0)
(0.0189506 -7.27994e-10 0)
(0.0610416 2.90979e-10 0)
(0.191191 1.17915e-09 0)
(0.582313 -2.70354e-09 0)
(1.72654 3.44381e-09 0)
(5.08982 -3.41206e-09 0)
(13.4206 7.95699e-09 0)
(21.2643 -1.36412e-08 0)
(27.6213 2.31103e-08 0)
(34.3311 -1.88116e-08 0)
(41.5666 2.1043e-08 0)
(49.2878 -1.90905e-08 0)
(57.4012 1.70185e-08 0)
(65.8242 -2.37449e-09 0)
(74.4903 2.40208e-10 0)
(83.3474 1.33072e-09 0)
(92.3547 1.29919e-09 0)
(101.48 -5.85201e-11 0)
(110.698 8.55224e-10 0)
(119.986 3.22509e-10 0)
(129.327 2.37654e-09 0)
(138.704 -1.99427e-10 0)
(148.104 7.84963e-09 0)
(157.512 -6.79944e-09 0)
(166.914 2.35333e-08 0)
(176.295 -2.0962e-08 0)
(185.635 3.58508e-08 0)
(194.911 -3.26789e-08 0)
(204.087 9.63713e-08 0)
(213.114 -1.40124e-07 0)
(221.919 1.56305e-07 0)
(230.396 -4.83455e-08 0)
(238.406 -3.51198e-09 0)
(245.764 1.08041e-07 0)
(252.275 -3.2288e-07 0)
(257.73 2.83986e-07 0)
(261.962 4.25966e-07 0)
(264.937 -6.57974e-07 0)
(266.534 -1.38903e-07 0)
(267.447 3.86159e-07 0)
(267.982 1.61673e-07 0)
(268.378 -7.95066e-08 0)
(268.332 -9.92004e-08 0)
(268.928 -9.39115e-08 0)
(268.544 -5.8787e-08 0)
(269.832 -4.04668e-08 0)
(269.073 -7.10367e-08 0)
(270.586 -7.7267e-08 0)
(269.886 -1.74071e-07 0)
(270.812 -2.19615e-07 0)
(271.172 -2.44374e-07 0)
(272.016 -2.87105e-07 0)
(272.443 -1.54903e-07 0)
(273.272 -1.19333e-07 0)
(273.629 -1.28356e-07 0)
(274.223 -1.26088e-07 0)
(274.288 -1.43335e-07 0)
(274.354 -1.40518e-07 0)
(274.214 -1.44715e-07 0)
(273.895 -1.03058e-07 0)
(273.457 -1.2147e-08 0)
(272.941 9.32209e-08 0)
(272.388 1.96282e-07 0)
(271.841 2.05936e-07 0)
(271.329 2.31066e-07 0)
(270.879 2.68407e-07 0)
(270.507 2.74923e-07 0)
(270.228 1.87571e-07 0)
(270.057 2.03067e-07 0)
(269.93 4.61053e-07 0)
(269.772 5.96279e-07 0)
(269.48 6.80043e-07 0)
(268.682 8.08322e-07 0)
(266.013 8.45277e-07 0)
(257.065 1.06478e-06 0)
(225.861 9.35988e-07 0)
(125.654 3.82498e-07 0)
(33.444 1.25982e-07 0)
(5.15913 1.27881e-08 0)
(0.502576 5.67298e-11 0)
(0.0513087 -5.5734e-12 0)
(0.00540695 1.15175e-11 0)
(0.000570253 3.50203e-12 0)
(6.0632e-05 -6.33052e-13 0)
(4.2956e-06 -3.31511e-12 0)
(1.13106e-12 5.66116e-14 0)
(2.11564e-11 1.05636e-13 0)
(1.30626e-10 -1.48386e-12 0)
(7.41226e-10 -5.43062e-13 0)
(4.15946e-09 -1.54194e-12 0)
(2.40128e-08 2.29364e-13 0)
(1.3302e-07 1.60345e-11 0)
(6.13493e-07 1.43207e-11 0)
(2.50259e-06 9.11826e-12 0)
(9.71627e-06 -6.37397e-11 0)
(3.66146e-05 3.63379e-11 0)
(0.000134505 -9.41309e-11 0)
(0.00048185 2.42687e-10 0)
(0.00168259 -8.96434e-10 0)
(0.00572331 1.62297e-09 0)
(0.0189505 -1.64828e-09 0)
(0.0610416 8.08925e-10 0)
(0.191191 2.84003e-10 0)
(0.582313 -8.35547e-10 0)
(1.72654 8.21566e-10 0)
(5.08982 7.89723e-11 0)
(13.4206 -2.32449e-09 0)
(21.2643 5.42657e-09 0)
(27.6213 -5.23814e-09 0)
(34.3311 7.01194e-09 0)
(41.5666 2.09257e-10 0)
(49.2878 2.87185e-09 0)
(57.4012 7.68369e-11 0)
(65.8242 1.90683e-09 0)
(74.4903 9.04267e-10 0)
(83.3474 4.58047e-09 0)
(92.3547 1.55096e-09 0)
(101.48 4.25292e-09 0)
(110.698 2.3685e-09 0)
(119.986 5.0869e-09 0)
(129.327 5.41692e-09 0)
(138.704 6.39619e-09 0)
(148.104 7.39092e-09 0)
(157.512 6.72446e-10 0)
(166.914 2.76822e-08 0)
(176.295 -1.95191e-08 0)
(185.635 3.75433e-08 0)
(194.911 1.34778e-08 0)
(204.087 -4.31423e-08 0)
(213.114 1.22332e-07 0)
(221.919 -1.52666e-07 0)
(230.396 1.96439e-07 0)
(238.406 -1.57847e-07 0)
(245.764 2.82218e-07 0)
(252.275 -3.7249e-07 0)
(257.73 4.79113e-07 0)
(261.962 -7.14964e-08 0)
(264.937 -1.13925e-07 0)
(266.534 1.1822e-07 0)
(267.447 5.38572e-08 0)
(267.982 -1.04478e-08 0)
(268.378 -1.64041e-08 0)
(268.332 5.45644e-09 0)
(268.928 8.36693e-11 0)
(268.544 -1.24225e-08 0)
(269.832 -1.7265e-08 0)
(269.073 -6.76673e-08 0)
(270.586 -8.77649e-08 0)
(269.886 -1.29912e-07 0)
(270.812 -1.53637e-07 0)
(271.172 -8.75425e-08 0)
(272.016 -1.07708e-07 0)
(272.443 -1.89115e-09 0)
(273.272 8.22773e-09 0)
(273.629 4.55188e-08 0)
(274.223 7.60502e-08 0)
(274.288 9.65084e-08 0)
(274.354 1.16793e-07 0)
(274.214 1.36108e-07 0)
(273.895 1.94253e-07 0)
(273.457 3.60025e-08 0)
(272.941 7.18231e-08 0)
(272.388 1.73779e-07 0)
(271.841 1.88431e-07 0)
(271.329 2.89978e-07 0)
(270.879 2.60088e-07 0)
(270.507 4.94167e-07 0)
(270.228 5.38329e-07 0)
(270.057 5.9155e-07 0)
(269.93 5.86439e-07 0)
(269.772 6.44921e-07 0)
(269.48 5.50451e-07 0)
(268.682 4.66597e-07 0)
(266.013 4.35195e-07 0)
(257.065 4.61436e-07 0)
(225.861 5.00165e-07 0)
(125.654 3.54055e-07 0)
(33.444 9.78993e-08 0)
(5.15913 1.44947e-08 0)
(0.502576 1.1026e-09 0)
(0.0513087 5.62399e-11 0)
(0.00540695 1.57333e-11 0)
(0.000570253 -2.11858e-11 0)
(6.0632e-05 -7.52749e-12 0)
(4.29559e-06 -4.46741e-12 0)
(3.37277e-12 -1.27785e-12 0)
(1.90705e-11 2.48624e-13 0)
(1.31356e-10 -1.41646e-12 0)
(7.40432e-10 3.56303e-13 0)
(4.15796e-09 -1.65633e-12 0)
(2.40107e-08 2.11009e-12 0)
(1.32968e-07 -1.47313e-11 0)
(6.13447e-07 -1.42944e-11 0)
(2.5023e-06 -1.48642e-10 0)
(9.71649e-06 7.19375e-12 0)
(3.66144e-05 -2.49395e-10 0)
(0.000134506 5.26651e-10 0)
(0.000481849 -3.66405e-10 0)
(0.00168259 -6.88362e-11 0)
(0.00572332 4.51539e-10 0)
(0.0189505 -7.95685e-10 0)
(0.0610416 1.15343e-09 0)
(0.191191 -2.91825e-09 0)
(0.582313 5.21086e-09 0)
(1.72654 -6.04157e-09 0)
(5.08982 7.07316e-09 0)
(13.4206 -5.31425e-09 0)
(21.2643 1.32428e-08 0)
(27.6213 -1.80411e-08 0)
(34.3311 2.38772e-08 0)
(41.5666 -9.71881e-09 0)
(49.2878 1.48664e-08 0)
(57.4012 -5.90748e-09 0)
(65.8242 5.26069e-09 0)
(74.4903 5.36625e-09 0)
(83.3474 4.26768e-09 0)
(92.3547 3.49496e-09 0)
(101.48 4.13022e-09 0)
(110.698 4.17077e-09 0)
(119.986 2.49226e-09 0)
(129.327 2.74221e-09 0)
(138.704 2.29873e-09 0)
(148.104 7.05688e-09 0)
(157.512 -2.85984e-09 0)
(166.914 1.77627e-08 0)
(176.295 -5.86514e-09 0)
(185.635 1.42902e-08 0)
(194.911 2.93149e-08 0)
(204.087 -2.76111e-08 0)
(213.114 5.08384e-08 0)
(221.919 -5.34683e-09 0)
(230.396 5.65815e-08 0)
(238.406 -6.38305e-08 0)
(245.764 2.04012e-09 0)
(252.275 1.53646e-07 0)
(257.73 1.0536e-07 0)
(261.962 -4.97809e-07 0)
(264.937 4.55704e-07 0)
(266.534 2.3371e-07 0)
(267.447 -1.90981e-07 0)
(267.982 -1.43835e-07 0)
(268.378 1.69324e-08 0)
(268.332 6.37765e-08 0)
(268.928 4.59643e-08 0)
(268.544 9.30536e-09 0)
(269.832 -2.41907e-08 0)
(269.073 -5.62479e-08 0)
(270.586 -5.55342e-08 0)
(269.886 -3.78153e-09 0)
(270.812 5.32911e-08 0)
(271.172 2.778e-09 0)
(272.016 1.38543e-08 0)
(272.443 -1.52974e-07 0)
(273.272 -1.84004e-07 0)
(273.629 -1.8887e-07 0)
(274.223 -1.97519e-07 0)
(274.288 -1.74562e-07 0)
(274.354 -1.74358e-07 0)
(274.214 -1.68062e-07 0)
(273.895 -1.21791e-07 0)
(273.457 -7.05453e-08 0)
(272.941 4.43512e-08 0)
(272.388 5.37403e-09 0)
(271.841 1.96849e-07 0)
(271.329 2.54363e-07 0)
(270.879 4.22459e-07 0)
(270.507 3.67903e-07 0)
(270.228 4.1463e-07 0)
(270.057 5.74399e-07 0)
(269.93 6.64142e-07 0)
(269.772 5.94574e-07 0)
(269.48 7.05049e-07 0)
(268.682 7.84754e-07 0)
(266.013 8.86102e-07 0)
(257.065 7.76369e-07 0)
(225.861 7.05124e-07 0)
(125.654 4.03466e-07 0)
(33.444 1.12978e-07 0)
(5.15913 2.15404e-08 0)
(0.502576 1.8653e-09 0)
(0.0513087 1.66829e-10 0)
(0.00540695 -6.9651e-11 0)
(0.000570253 -1.13173e-11 0)
(6.06321e-05 -5.18032e-11 0)
(4.29561e-06 -8.66579e-12 0)
(3.65641e-12 -1.45001e-12 0)
(1.9779e-11 -7.47039e-13 0)
(1.32188e-10 -1.85593e-13 0)
(7.39931e-10 -5.98507e-13 0)
(4.15836e-09 -6.47531e-13 0)
(2.40096e-08 -1.11501e-12 0)
(1.32948e-07 -1.44447e-12 0)
(6.13446e-07 -2.94307e-11 0)
(2.50222e-06 1.21645e-11 0)
(9.71677e-06 -2.35989e-12 0)
(3.6614e-05 -1.54331e-11 0)
(0.000134507 2.74365e-11 0)
(0.000481848 -3.17766e-11 0)
(0.00168259 5.45448e-11 2.13095e-33)
(0.00572332 9.81367e-11 0)
(0.0189505 -3.20535e-11 0)
(0.0610416 -1.17407e-11 0)
(0.191191 -4.05684e-11 0)
(0.582313 5.41627e-10 0)
(1.72654 -5.04091e-10 0)
(5.08982 1.68e-09 0)
(13.4206 1.41936e-09 0)
(21.2643 1.78647e-09 0)
(27.6213 1.34328e-09 0)
(34.3311 3.3466e-09 0)
(41.5666 1.35245e-09 0)
(49.2878 7.29294e-09 0)
(57.4012 4.00562e-09 0)
(65.8242 3.58715e-09 0)
(74.4903 7.93027e-09 0)
(83.3474 1.20939e-09 0)
(92.3547 6.81302e-09 1.90226e-33)
(101.48 2.32589e-09 0)
(110.698 5.68723e-09 0)
(119.986 4.76369e-09 0)
(129.327 6.07496e-09 0)
(138.704 4.18007e-09 -1.79862e-33)
(148.104 9.67704e-09 0)
(157.512 4.34857e-09 0)
(166.914 1.78692e-08 1.7373e-33)
(176.295 -4.41707e-09 0)
(185.635 3.79116e-08 0)
(194.911 -2.95358e-08 0)
(204.087 9.08996e-08 -1.6587e-33)
(213.114 -8.2963e-08 0)
(221.919 1.68744e-07 0)
(230.396 -8.53383e-08 0)
(238.406 1.37341e-07 0)
(245.764 -1.39209e-08 0)
(252.275 3.76184e-08 0)
(257.73 -4.68378e-09 0)
(261.962 1.16698e-07 0)
(264.937 -1.49527e-07 0)
(266.534 -4.8466e-08 0)
(267.447 9.77612e-08 0)
(267.982 5.29859e-08 -7.71625e-34)
(268.378 -2.25479e-08 7.71102e-34)
(268.332 3.29908e-09 0)
(268.928 -1.18896e-09 0)
(268.544 1.45677e-08 -7.68359e-34)
(269.832 1.6637e-08 0)
(269.073 -6.50906e-09 0)
(270.586 -1.16759e-08 0)
(269.886 -3.69002e-09 0)
(270.812 9.59718e-10 0)
(271.172 -4.008e-09 0)
(272.016 5.11695e-08 0)
(272.443 -4.60203e-08 0)
(273.272 -5.95902e-08 0)
(273.629 -2.65448e-08 0)
(274.223 -4.08084e-08 0)
(274.288 -6.84855e-08 9.65172e-34)
(274.354 -9.55007e-08 0)
(274.214 -9.6598e-08 0)
(273.895 -4.46462e-08 0)
(273.457 -8.09814e-08 0)
(272.941 8.10914e-09 0)
(272.388 -8.8105e-10 0)
(271.841 1.13014e-07 0)
(271.329 -2.51541e-08 0)
(270.879 1.43158e-07 0)
(270.507 2.83779e-07 0)
(270.228 4.99495e-07 0)
(270.057 6.57054e-07 0)
(269.93 7.47305e-07 0)
(269.772 8.08589e-07 0)
(269.48 1.00504e-06 0)
(268.682 1.09486e-06 0)
(266.013 1.13747e-06 0)
(257.065 1.17509e-06 0)
(225.861 9.69216e-07 0)
(125.654 6.76396e-07 -1.07206e-33)
(33.444 1.8643e-07 0)
(5.15912 2.3794e-08 -8.62879e-34)
(0.502576 9.73441e-10 0)
(0.0513087 1.26878e-10 0)
(0.00540695 1.15508e-11 0)
(0.000570252 -7.16518e-12 0)
(6.06321e-05 6.94914e-12 0)
(4.29562e-06 -2.63478e-12 0)
(4.36726e-12 6.46072e-13 0)
(2.34483e-11 8.10654e-13 0)
(1.31969e-10 1.55711e-12 0)
(7.36758e-10 4.17875e-13 0)
(4.15916e-09 -5.61155e-13 0)
(2.40085e-08 -2.65549e-14 0)
(1.32943e-07 7.12168e-12 0)
(6.13361e-07 -2.07128e-12 0)
(2.50241e-06 2.07271e-11 0)
(9.71644e-06 -9.05788e-11 0)
(3.66144e-05 6.42742e-11 0)
(0.000134507 -9.30577e-11 0)
(0.000481848 3.49827e-11 0)
(0.00168259 -1.27447e-11 -2.13095e-33)
(0.00572332 -2.9867e-11 0)
(0.0189505 1.6183e-10 0)
(0.0610416 -4.58108e-10 0)
(0.191191 7.03596e-10 0)
(0.582313 -6.12113e-10 0)
(1.72654 8.25964e-10 0)
(5.08982 7.13454e-10 0)
(13.4206 8.54852e-10 0)
(21.2643 3.2074e-09 0)
(27.6213 7.31295e-09 0)
(34.3311 -1.83138e-10 0)
(41.5666 4.61195e-09 0)
(49.2878 5.25437e-09 0)
(57.4012 2.57931e-09 0)
(65.8242 3.68193e-09 0)
(74.4903 4.28942e-09 0)
(83.3474 4.31756e-09 0)
(92.3547 3.57274e-09 -1.90226e-33)
(101.48 5.94261e-09 0)
(110.698 4.30563e-09 0)
(119.986 3.87251e-09 0)
(129.327 4.8507e-09 0)
(138.704 1.30094e-09 1.79862e-33)
(148.104 9.22767e-09 0)
(157.512 -3.69553e-09 0)
(166.914 1.59089e-08 -1.7373e-33)
(176.295 -1.03712e-08 0)
(185.635 2.35995e-08 0)
(194.911 -3.45013e-09 0)
(204.087 2.17963e-09 1.6587e-33)
(213.114 3.72954e-08 0)
(221.919 -3.77044e-08 0)
(230.396 8.17865e-08 0)
(238.406 -7.86717e-08 0)
(245.764 1.64651e-07 0)
(252.275 -1.34082e-07 0)
(257.73 1.024e-08 0)
(261.962 1.62623e-07 0)
(264.937 -9.58579e-08 0)
(266.534 -6.85377e-08 0)
(267.447 2.50932e-08 0)
(267.982 6.43685e-08 7.71625e-34)
(268.378 3.63072e-08 -7.71102e-34)
(268.332 5.51777e-08 0)
(268.928 5.24061e-08 0)
(268.544 5.84115e-08 7.68359e-34)
(269.832 5.68922e-08 0)
(269.073 1.25971e-08 0)
(270.586 -9.59877e-09 0)
(269.886 -5.33706e-08 0)
(270.812 -5.87961e-08 0)
(271.172 -8.58701e-08 0)
(272.016 -1.10127e-07 0)
(272.443 -6.80159e-08 0)
(273.272 -6.18563e-08 0)
(273.629 -4.51503e-08 0)
(274.223 -4.42392e-08 0)
(274.288 -2.83829e-08 -9.65172e-34)
(274.354 8.44581e-09 0)
(274.214 3.87744e-08 0)
(273.895 1.68331e-08 0)
(273.457 -3.1599e-08 0)
(272.941 -1.23935e-07 0)
(272.388 -1.91554e-07 0)
(271.841 -2.28006e-08 0)
(271.329 1.32804e-07 0)
(270.879 3.21709e-07 0)
(270.507 3.93659e-07 0)
(270.228 5.95898e-07 0)
(270.057 6.28645e-07 0)
(269.93 5.94827e-07 0)
(269.772 5.14988e-07 0)
(269.48 4.24642e-07 0)
(268.682 3.47541e-07 0)
(266.013 3.00109e-07 0)
(257.065 2.34444e-07 0)
(225.861 2.01788e-07 0)
(125.654 1.4773e-07 1.07206e-33)
(33.444 3.80348e-08 0)
(5.15912 8.908e-09 8.62879e-34)
(0.502576 9.11642e-10 0)
(0.0513087 5.34107e-11 0)
(0.00540695 3.10339e-11 0)
(0.000570253 -2.75742e-11 0)
(6.06321e-05 5.64903e-12 0)
(4.2956e-06 -9.30293e-12 0)
(2.52067e-12 1.36772e-12 0)
(2.44941e-11 2.74303e-14 0)
(1.28659e-10 9.34091e-13 0)
(7.38647e-10 -8.98782e-13 0)
(4.15355e-09 1.19059e-12 0)
(2.40184e-08 -1.52122e-12 0)
(1.32964e-07 5.68246e-12 0)
(6.13405e-07 1.94189e-11 0)
(2.50229e-06 5.53614e-11 0)
(9.71641e-06 4.78998e-11 0)
(3.66145e-05 6.8722e-11 0)
(0.000134506 -1.79346e-10 0)
(0.000481848 3.46271e-12 0)
(0.00168259 4.42421e-10 0)
(0.00572331 -7.64029e-10 0)
(0.0189505 9.94298e-10 0)
(0.0610416 -7.60189e-10 0)
(0.191191 1.16697e-09 0)
(0.582313 -1.79851e-09 0)
(1.72654 2.38408e-09 0)
(5.08982 -7.57241e-10 0)
(13.4206 2.63761e-09 0)
(21.2643 -4.88414e-09 0)
(27.6213 1.93589e-08 0)
(34.3311 -1.30092e-08 0)
(41.5666 1.32433e-08 0)
(49.2878 1.27942e-09 0)
(57.4012 1.01566e-08 0)
(65.8242 5.41344e-09 0)
(74.4903 3.03412e-09 0)
(83.3474 6.77965e-09 0)
(92.3547 1.9062e-09 0)
(101.48 5.0834e-09 0)
(110.698 4.97227e-09 0)
(119.986 5.569e-09 0)
(129.327 9.92621e-09 0)
(138.704 5.61537e-09 0)
(148.104 1.33522e-08 0)
(157.512 2.72638e-09 0)
(166.914 2.3466e-08 0)
(176.295 -1.47612e-09 0)
(185.635 2.82124e-08 0)
(194.911 1.61113e-09 0)
(204.087 6.22472e-08 0)
(213.114 -8.00866e-08 0)
(221.919 1.40855e-07 0)
(230.396 -9.975e-08 0)
(238.406 6.43066e-08 0)
(245.764 -2.01714e-07 0)
(252.275 2.0191e-07 0)
(257.73 -2.85352e-08 0)
(261.962 -1.67508e-07 0)
(264.937 -1.98953e-09 0)
(266.534 1.16515e-07 0)
(267.447 -2.64369e-08 0)
(267.982 -8.61543e-08 0)
(268.378 -3.08253e-08 0)
(268.332 4.53253e-08 0)
(268.928 6.65764e-08 0)
(268.544 8.22129e-08 0)
(269.832 8.37955e-08 0)
(269.073 6.24691e-08 0)
(270.586 5.7528e-08 0)
(269.886 6.36854e-08 0)
(270.812 1.06252e-07 0)
(271.172 4.88193e-08 0)
(272.016 6.40468e-08 0)
(272.443 -2.85595e-08 0)
(273.272 -3.59788e-08 0)
(273.629 -1.462e-07 0)
(274.223 -1.79431e-07 0)
(274.288 -2.45182e-07 0)
(274.354 -2.3596e-07 0)
(274.214 -2.2546e-07 0)
(273.895 -1.94221e-07 0)
(273.457 -7.04577e-08 0)
(272.941 -6.32298e-08 0)
(272.388 4.63618e-08 0)
(271.841 1.96955e-07 0)
(271.329 3.4626e-07 0)
(270.879 5.1766e-07 0)
(270.507 6.10748e-07 0)
(270.228 8.02558e-07 0)
(270.057 8.04218e-07 0)
(269.93 8.91093e-07 0)
(269.772 9.41395e-07 0)
(269.48 9.41544e-07 0)
(268.682 8.74707e-07 0)
(266.013 8.84595e-07 0)
(257.065 7.02997e-07 0)
(225.861 5.41816e-07 0)
(125.654 2.17743e-07 0)
(33.444 6.18422e-08 0)
(5.15912 9.71891e-09 0)
(0.502576 1.26405e-09 0)
(0.0513087 1.16641e-10 0)
(0.00540695 9.42983e-11 0)
(0.000570253 3.1524e-11 0)
(6.06321e-05 4.13955e-11 0)
(4.29561e-06 2.36732e-11 0)
(1.83025e-12 1.40653e-13 0)
(2.50106e-11 2.38702e-13 0)
(1.2669e-10 1.20752e-12 0)
(7.3892e-10 -3.98615e-13 0)
(4.15823e-09 1.55127e-12 0)
(2.40112e-08 1.5968e-12 0)
(1.32975e-07 -2.27876e-12 0)
(6.13442e-07 -4.86305e-12 0)
(2.50256e-06 5.50775e-11 0)
(9.71634e-06 5.84479e-11 0)
(3.66144e-05 2.7098e-11 0)
(0.000134506 -7.50069e-11 0)
(0.000481849 -1.27153e-10 0)
(0.00168259 7.36764e-10 0)
(0.00572331 -1.14051e-09 0)
(0.0189505 1.04392e-09 0)
(0.0610416 -4.75756e-10 0)
(0.191191 1.74828e-10 0)
(0.582313 -1.28592e-10 0)
(1.72654 1.06032e-09 0)
(5.08982 2.18131e-10 0)
(13.4206 1.85157e-09 0)
(21.2643 1.62422e-09 0)
(27.6213 2.88959e-09 0)
(34.3311 -6.07126e-10 0)
(41.5666 2.06316e-09 0)
(49.2878 2.7953e-09 0)
(57.4012 1.68053e-09 0)
(65.8242 1.67341e-09 0)
(74.4903 4.72425e-09 0)
(83.3474 3.30941e-09 0)
(92.3547 5.1029e-09 0)
(101.48 3.27086e-09 0)
(110.698 4.90471e-09 0)
(119.986 4.35023e-09 0)
(129.327 5.13692e-09 0)
(138.704 5.29975e-09 0)
(148.104 7.07658e-09 0)
(157.512 6.42786e-10 0)
(166.914 1.99833e-08 0)
(176.295 -1.99638e-08 0)
(185.635 5.35793e-08 0)
(194.911 -5.7564e-08 0)
(204.087 8.90356e-08 0)
(213.114 -4.37469e-08 0)
(221.919 3.5617e-08 0)
(230.396 -3.67931e-08 0)
(238.406 1.95708e-07 0)
(245.764 -1.97519e-07 0)
(252.275 1.62061e-07 0)
(257.73 -6.34206e-08 0)
(261.962 9.06878e-08 0)
(264.937 -7.33457e-08 0)
(266.534 7.93093e-08 0)
(267.447 -6.99429e-09 0)
(267.982 8.75058e-08 0)
(268.378 9.35908e-08 0)
(268.332 7.52186e-08 0)
(268.928 7.15424e-08 0)
(268.544 6.6134e-08 0)
(269.832 6.0657e-08 0)
(269.073 4.76462e-08 0)
(270.586 7.39504e-08 0)
(269.886 -1.92498e-08 0)
(270.812 -5.05935e-08 0)
(271.172 -4.08683e-08 0)
(272.016 -3.45802e-08 0)
(272.443 8.74653e-09 0)
(273.272 2.49653e-08 0)
(273.629 1.71626e-08 0)
(274.223 2.4454e-08 0)
(274.288 1.5877e-08 0)
(274.354 1.2533e-08 0)
(274.214 -1.79906e-09 0)
(273.895 3.37381e-08 0)
(273.457 2.76224e-07 0)
(272.941 4.57431e-07 0)
(272.388 5.13303e-07 0)
(271.841 4.40349e-07 0)
(271.329 4.00946e-07 0)
(270.879 3.37695e-07 0)
(270.507 3.69754e-07 0)
(270.228 3.60501e-07 0)
(270.057 3.77978e-07 0)
(269.93 4.39856e-07 0)
(269.772 5.3675e-07 0)
(269.48 6.0778e-07 0)
(268.682 6.85633e-07 0)
(266.013 7.32152e-07 0)
(257.065 7.8972e-07 0)
(225.861 7.60641e-07 0)
(125.654 4.29345e-07 0)
(33.444 1.19385e-07 0)
(5.15912 1.90731e-08 0)
(0.502576 2.50894e-09 0)
(0.0513087 3.03654e-10 0)
(0.00540695 2.43038e-11 0)
(0.000570253 4.76156e-11 0)
(6.0632e-05 7.56631e-12 0)
(4.29559e-06 -4.25338e-12 0)
(3.45272e-12 7.28071e-13 0)
(2.45974e-11 9.01991e-13 0)
(1.30617e-10 -6.12806e-14 0)
(7.36571e-10 1.05227e-12 0)
(4.15816e-09 5.21468e-13 0)
(2.40157e-08 9.72902e-13 0)
(1.32953e-07 -3.07483e-12 0)
(6.13425e-07 -2.07268e-11 0)
(2.50257e-06 -3.39325e-11 0)
(9.71633e-06 1.70477e-11 0)
(3.66144e-05 -6.61725e-11 0)
(0.000134506 2.55265e-11 0)
(0.000481849 -7.05803e-11 0)
(0.00168259 2.6824e-10 0)
(0.00572331 -5.08806e-10 0)
(0.0189505 6.59633e-10 0)
(0.0610416 -6.56777e-10 0)
(0.191191 4.8551e-10 0)
(0.582313 -4.58764e-10 0)
(1.72654 1.08689e-09 0)
(5.08982 2.09619e-09 0)
(13.4206 -4.0119e-09 0)
(21.2643 1.973e-08 0)
(27.6213 -1.73674e-08 0)
(34.3311 2.62768e-08 0)
(41.5666 -4.88255e-09 0)
(49.2878 1.20856e-08 0)
(57.4012 5.12781e-09 0)
(65.8242 5.67215e-10 0)
(74.4903 8.41525e-09 0)
(83.3474 3.68122e-09 0)
(92.3547 5.79445e-09 0)
(101.48 4.0219e-09 0)
(110.698 4.99983e-09 0)
(119.986 7.77457e-09 0)
(129.327 2.87886e-09 0)
(138.704 1.19158e-08 0)
(148.104 4.50386e-09 0)
(157.512 1.15472e-08 0)
(166.914 1.78478e-08 0)
(176.295 -6.24831e-09 0)
(185.635 5.80247e-08 0)
(194.911 -8.8164e-08 0)
(204.087 2.01984e-07 0)
(213.114 -3.23619e-07 0)
(221.919 4.4629e-07 0)
(230.396 -5.49968e-07 0)
(238.406 6.71822e-07 0)
(245.764 -7.69082e-07 0)
(252.275 5.80562e-07 0)
(257.73 -6.77124e-07 0)
(261.962 1.15707e-06 0)
(264.937 -1.01823e-06 0)
(266.534 -3.41914e-07 0)
(267.447 4.94464e-07 0)
(267.982 3.18369e-07 0)
(268.378 -4.3652e-08 0)
(268.332 -9.59621e-08 0)
(268.928 -6.90529e-08 0)
(268.544 1.97335e-08 0)
(269.832 5.9403e-08 0)
(269.073 1.17655e-07 0)
(270.586 1.45181e-07 0)
(269.886 -6.79829e-08 0)
(270.812 -1.50946e-07 0)
(271.172 -3.47113e-07 0)
(272.016 -4.0917e-07 0)
(272.443 -3.5058e-07 0)
(273.272 -3.32994e-07 0)
(273.629 -3.3109e-07 0)
(274.223 -3.3547e-07 0)
(274.288 -3.57736e-07 0)
(274.354 -3.80313e-07 0)
(274.214 -3.83855e-07 0)
(273.895 -3.72685e-07 0)
(273.457 -2.78962e-07 0)
(272.941 -1.50497e-07 0)
(272.388 4.37935e-08 0)
(271.841 2.56963e-07 0)
(271.329 5.75268e-07 0)
(270.879 7.14126e-07 0)
(270.507 9.1756e-07 0)
(270.228 8.70694e-07 0)
(270.057 9.63138e-07 0)
(269.93 9.16973e-07 0)
(269.772 9.57317e-07 0)
(269.48 9.58412e-07 0)
(268.682 1.06544e-06 0)
(266.013 1.14583e-06 0)
(257.065 1.27726e-06 0)
(225.861 1.15938e-06 0)
(125.654 6.50581e-07 0)
(33.444 1.85407e-07 0)
(5.15912 3.09024e-08 0)
(0.502576 1.44971e-09 0)
(0.0513087 2.49037e-10 0)
(0.00540695 -4.8484e-11 0)
(0.000570252 2.95631e-11 0)
(6.0632e-05 -1.04837e-11 0)
(4.29559e-06 7.49335e-12 0)
(2.05202e-12 1.00821e-12 0)
(2.28285e-11 1.66333e-13 0)
(1.27894e-10 3.35e-13 0)
(7.38828e-10 -1.55244e-13 0)
(4.15736e-09 3.46089e-13 0)
(2.4011e-08 -1.258e-12 0)
(1.32949e-07 -1.8676e-14 0)
(6.13383e-07 -4.67366e-12 0)
(2.50254e-06 -2.15305e-11 0)
(9.71651e-06 2.31781e-11 0)
(3.6614e-05 -5.66434e-11 0)
(0.000134506 4.31497e-11 0)
(0.000481849 -2.9627e-11 0)
(0.00168259 4.73281e-11 0)
(0.00572331 -9.93773e-11 0)
(0.0189506 3.08722e-10 0)
(0.0610416 -5.89655e-10 0)
(0.191191 9.66348e-10 0)
(0.582313 -9.45551e-10 0)
(1.72654 8.54533e-10 0)
(5.08982 -1.458e-10 0)
(13.4206 -2.05407e-10 0)
(21.2643 2.80142e-09 0)
(27.6213 -2.77068e-09 0)
(34.3311 4.2416e-09 0)
(41.5666 -3.50035e-10 0)
(49.2878 1.94715e-10 0)
(57.4012 3.2298e-09 0)
(65.8242 -7.97261e-10 0)
(74.4903 2.88026e-09 0)
(83.3474 2.91187e-09 0)
(92.3547 2.36055e-09 0)
(101.48 4.38195e-09 0)
(110.698 2.41333e-09 0)
(119.986 4.656e-09 0)
(129.327 3.79537e-09 0)
(138.704 4.09954e-09 0)
(148.104 7.74969e-09 0)
(157.512 -2.952e-09 0)
(166.914 2.65096e-08 0)
(176.295 -3.16796e-08 0)
(185.635 6.54795e-08 0)
(194.911 -6.865e-08 0)
(204.087 9.98719e-08 0)
(213.114 -6.9253e-08 0)
(221.919 4.29528e-08 0)
(230.396 -3.59626e-08 0)
(238.406 1.3884e-07 0)
(245.764 -2.544e-07 0)
(252.275 2.06164e-07 0)
(257.73 -1.32195e-07 0)
(261.962 3.76436e-07 0)
(264.937 -2.69737e-07 0)
(266.534 -5.26142e-08 0)
(267.447 1.89588e-07 0)
(267.982 1.36131e-07 0)
(268.378 3.1837e-08 0)
(268.332 9.03002e-09 0)
(268.928 1.17422e-08 0)
(268.544 3.94562e-08 0)
(269.832 5.44664e-08 0)
(269.073 8.45523e-08 0)
(270.586 1.14838e-07 0)
(269.886 5.14969e-08 0)
(270.812 5.82697e-08 0)
(271.172 -9.7744e-08 0)
(272.016 -1.29355e-07 0)
(272.443 -2.65905e-07 0)
(273.272 -3.04265e-07 0)
(273.629 -3.85966e-07 0)
(274.223 -4.0705e-07 0)
(274.288 -4.01925e-07 0)
(274.354 -3.95033e-07 0)
(274.214 -3.96061e-07 0)
(273.895 -3.66814e-07 0)
(273.457 -2.67103e-07 0)
(272.941 -1.0511e-07 0)
(272.388 7.34869e-08 0)
(271.841 2.10495e-07 0)
(271.329 2.99537e-07 0)
(270.879 3.59779e-07 0)
(270.507 4.54066e-07 0)
(270.228 5.6639e-07 0)
(270.057 6.88263e-07 0)
(269.93 7.82024e-07 0)
(269.772 9.00807e-07 0)
(269.48 1.02133e-06 0)
(268.682 1.15294e-06 0)
(266.013 1.27669e-06 0)
(257.065 1.36901e-06 0)
(225.861 1.24801e-06 0)
(125.654 4.77708e-07 0)
(33.444 1.35405e-07 0)
(5.15912 1.13425e-08 0)
(0.502576 1.12624e-10 0)
(0.0513087 6.89564e-11 0)
(0.00540695 -5.80835e-12 0)
(0.000570252 2.78148e-11 0)
(6.06321e-05 1.58093e-11 0)
(4.29561e-06 5.15648e-11 0)
)
;

boundaryField
{
    sides1
    {
        type            zeroGradient;
    }
    sides2
    {
        type            zeroGradient;
    }
    empty
    {
        type            empty;
    }
}


// ************************************************************************* //
