/*--------------------------------*- C++ -*----------------------------------*\
| =========                 |                                                 |
| \\      /  F ield         | OpenFOAM: The Open Source CFD Toolbox           |
|  \\    /   O peration     | Version:  3.0.0                                 |
|   \\  /    A nd           | Web:      www.OpenFOAM.org                      |
|    \\/     M anipulation  |                                                 |
\*---------------------------------------------------------------------------*/
FoamFile
{
    version     2.0;
    format      ascii;
    class       surfaceScalarField;
    location    "0.00015";
    object      phi;
}
// * * * * * * * * * * * * * * * * * * * * * * * * * * * * * * * * * * * * * //

dimensions      [1 0 -1 0 0 0 0];

internalField   nonuniform List<scalar> 
1890
(
-1.38778e-17
-6.93889e-17
-5.20417e-17
-8.84709e-17
-5.55112e-17
-5.72459e-17
-5.20417e-17
-5.20417e-18
-3.1225e-17
-1.73472e-18
0
1.9082e-17
1.73472e-17
1.73472e-18
4.51028e-17
3.46945e-18
1.14492e-16
-8.67362e-18
2.15106e-16
-3.98986e-17
2.18575e-16
-6.59195e-17
1.35308e-16
-7.45931e-17
3.71231e-16
-1.30104e-16
1.89779e-15
-4.85723e-17
1.26218e-14
-8.1532e-17
8.35824e-14
-7.97973e-17
5.46375e-13
-2.94903e-17
3.36307e-12
8.67362e-18
1.89755e-11
1.13624e-15
9.57229e-11
2.11289e-15
4.46446e-10
1.05818e-16
1.99456e-09
1.32012e-15
8.60525e-09
-6.59021e-15
3.58788e-08
8.36137e-15
1.44431e-07
-3.81639e-15
5.60604e-07
7.94503e-16
2.09498e-06
1.25247e-15
7.52526e-06
-2.00014e-15
2.59342e-05
1.85615e-15
8.55659e-05
-2.75301e-15
0.000268399
1.41328e-14
0.00078003
-1.51334e-13
0.0018162
6.41587e-14
0.00273456
-1.04118e-14
0.00359241
3.14783e-14
0.00447739
4.64047e-14
0.0053635
-1.28491e-14
0.00621766
5.61131e-14
0.00701915
-9.01128e-14
0.00775531
-5.37955e-14
0.00841911
-2.42309e-13
0.00900773
-1.61284e-13
0.00952102
-6.29295e-13
0.00996057
4.45751e-13
0.0103291
-1.90306e-12
0.0106303
9.39157e-13
0.0108676
-2.57789e-13
0.0110447
-1.88609e-12
0.0111642
-2.11602e-12
0.0112311
3.6863e-12
0.0112526
-3.1857e-12
0.0112505
-8.92288e-13
0.0112325
-3.04772e-12
0.0111998
3.67213e-12
0.0111362
-4.49721e-13
0.0110498
-3.56876e-15
0.010918
-3.27723e-12
0.0107302
-3.35784e-12
0.0104946
-4.14783e-12
0.0101996
-1.73469e-12
0.00986513
-1.74442e-12
0.00950015
-1.21274e-12
0.00912969
-1.28788e-12
0.00876648
-1.441e-12
0.00843842
-1.66632e-12
0.00815506
-1.21996e-12
0.00792079
-8.17642e-13
0.00773663
3.45429e-13
0.00759286
8.58874e-13
0.0074824
2.2185e-12
0.0073815
1.78549e-12
0.0072391
4.6236e-12
0.00687142
3.45886e-12
0.00554974
1.3854e-12
0.00202028
-1.67406e-12
0.00046454
-4.03052e-13
8.36002e-05
8.61069e-14
1.01635e-05
-4.20302e-15
1.07892e-06
5.05889e-16
1.13253e-07
1.74773e-16
1.18878e-08
-6.91721e-17
1.24808e-09
7.15573e-17
1.30943e-10
2.97071e-17
1.36459e-11
2.81893e-17
1.37784e-12
7.58942e-18
1.29954e-13
0
1.13867e-14
1.95156e-18
1.00245e-15
6.50521e-19
9.04225e-17
8.67362e-19
6.50521e-19
2.1684e-19
3.68629e-18
1.51788e-18
-2.81893e-18
0
-5.63785e-18
1.73472e-18
-2.1684e-18
5.42101e-18
2.81893e-18
6.72205e-18
8.45678e-18
9.1073e-18
2.81893e-18
4.11997e-18
3.90313e-18
8.67362e-18
2.60209e-18
7.58942e-18
9.54098e-18
6.245e-17
-7.97973e-17
9.71445e-17
-7.28584e-17
1.07553e-16
-7.11237e-17
3.81639e-17
-6.41848e-17
3.46945e-18
-8.32667e-17
-3.81639e-17
-8.50015e-17
-3.46945e-17
-9.36751e-17
-4.16334e-17
-4.16334e-17
-1.59595e-16
-6.76542e-17
2.08167e-17
3.46945e-18
6.245e-17
-5.37764e-17
-4.85723e-17
-6.93889e-17
3.08781e-16
-6.245e-17
1.93248e-15
-9.19403e-17
1.25594e-14
-7.80626e-17
8.35443e-14
-2.77556e-17
5.46781e-13
-1.45717e-16
3.36571e-12
-2.60209e-17
1.89824e-11
8.67362e-17
9.57257e-11
2.498e-16
4.46447e-10
-1.60115e-15
1.99455e-09
3.1572e-16
8.60524e-09
-3.1572e-16
3.58788e-08
1.14665e-15
1.44431e-07
-5.96224e-15
5.60604e-07
1.17111e-14
2.09498e-06
-1.09808e-14
7.52526e-06
2.56219e-15
2.59342e-05
5.86337e-16
8.55659e-05
-1.55344e-14
0.000268399
-4.89539e-15
0.00078003
3.50119e-14
0.0018162
-2.39224e-13
0.00273456
1.06106e-13
0.00359241
4.05665e-14
0.00447739
1.37856e-13
0.0053635
1.60927e-13
0.00621766
-3.68369e-14
0.00701915
-4.26742e-14
0.00775531
-2.21772e-13
0.00841911
-3.00658e-13
0.00900773
-3.97095e-13
0.00952102
-6.26898e-13
0.00996057
-8.9039e-14
0.0103291
-1.40522e-12
0.0106303
6.1704e-13
0.0108676
-1.07354e-12
0.0110447
-4.61394e-13
0.0111642
-1.17172e-12
0.0112311
2.21548e-12
0.0112526
-1.69562e-12
0.0112505
-2.95471e-12
0.0112325
1.88422e-12
0.0111998
1.6074e-12
0.0111362
3.35191e-12
0.0110498
-1.92684e-12
0.010918
-2.62198e-12
0.0107302
-1.59643e-12
0.0104946
-1.36026e-12
0.0101996
-4.06582e-13
0.00986513
1.90404e-13
0.00950015
3.27931e-13
0.00912969
3.17254e-13
0.00876648
3.81416e-13
0.00843842
8.63487e-13
0.00815506
1.03466e-12
0.00792079
1.50744e-12
0.00773663
1.50148e-12
0.00759286
1.71048e-12
0.0074824
2.351e-12
0.0073815
2.53741e-12
0.0072391
2.63266e-12
0.00687142
9.69962e-12
0.00554974
1.26296e-11
0.00202028
6.83717e-12
0.00046454
2.6753e-12
8.36002e-05
1.72322e-13
1.01635e-05
1.10418e-13
1.07892e-06
5.30131e-15
1.13253e-07
6.10623e-16
1.18878e-08
7.58942e-17
1.24808e-09
5.1608e-17
1.30943e-10
1.17094e-17
1.36458e-11
6.44016e-17
1.37783e-12
1.71304e-17
1.29955e-13
1.04083e-17
1.13867e-14
0
1.00744e-15
7.15573e-18
9.06393e-17
-6.50521e-19
1.38778e-17
2.1684e-18
9.75782e-18
-3.68629e-18
1.51788e-17
-2.1684e-18
8.0231e-18
-3.68629e-18
9.54098e-18
-2.38524e-18
4.98733e-18
-6.50521e-18
1.23599e-17
1.0842e-18
2.1684e-19
-5.42101e-18
1.36609e-17
2.38524e-18
1.19262e-17
-5.85469e-18
1.0842e-18
6.93889e-18
-5.55112e-17
4.16334e-17
2.42861e-17
-1.04083e-17
-6.07153e-17
0
3.64292e-17
-4.51028e-17
-4.33681e-17
3.46945e-17
1.9082e-17
9.02056e-17
-5.37764e-17
4.16334e-17
-8.1532e-17
3.1225e-17
-4.51028e-17
4.85723e-17
-1.73472e-17
3.46945e-17
6.93889e-18
4.51028e-17
-1.9082e-17
3.19189e-16
1.04083e-17
1.88738e-15
0
1.2667e-14
-3.46945e-18
8.35478e-14
-4.85723e-17
5.46611e-13
3.46945e-18
3.36578e-12
-1.37043e-16
1.89817e-11
-7.11237e-16
9.57246e-11
-1.65493e-15
4.46445e-10
-9.05526e-16
1.99455e-09
-1.23165e-16
8.60524e-09
2.41127e-15
3.58788e-08
-8.16361e-15
1.44431e-07
6.86083e-15
5.60604e-07
-1.0339e-15
2.09498e-06
-2.71658e-15
7.52526e-06
2.99587e-15
2.59342e-05
-8.18963e-15
8.55659e-05
3.33761e-15
0.000268399
-5.84775e-15
0.00078003
2.69125e-14
0.0018162
3.16691e-14
0.00273456
2.00878e-13
0.00359241
8.26448e-14
0.00447739
7.39955e-14
0.0053635
8.55019e-14
0.00621766
-3.08937e-14
0.00701915
-8.00479e-14
0.00775531
-1.59191e-13
0.00841911
-1.92163e-13
0.00900773
-2.6983e-13
0.00952102
-2.85167e-13
0.00996057
-1.13578e-13
0.0103291
-5.75244e-13
0.0106303
4.75254e-13
0.0108676
-1.07416e-12
0.0110447
2.46882e-13
0.0111642
3.56588e-13
0.0112311
-1.35321e-12
0.0112526
1.22907e-12
0.0112505
-8.49128e-13
0.0112325
4.10031e-12
0.0111998
-2.67706e-12
0.0111362
1.34661e-13
0.0110498
-2.59484e-12
0.010918
-7.92881e-13
0.0107302
1.91103e-12
0.0104946
2.13799e-12
0.0101996
3.68664e-13
0.00986513
7.38406e-13
0.00950015
-2.40303e-13
0.00912969
8.27819e-14
0.00876648
6.67047e-13
0.00843842
1.66137e-12
0.00815506
2.64114e-12
0.00792079
4.0272e-12
0.00773663
4.20047e-12
0.00759286
5.08531e-12
0.0074824
4.62045e-12
0.0073815
3.85866e-12
0.0072391
3.66749e-12
0.00687142
3.99331e-12
0.00554974
3.40433e-12
0.00202028
9.17537e-12
0.00046454
1.62351e-12
8.36002e-05
3.71747e-13
1.01635e-05
1.10586e-14
1.07892e-06
1.17924e-14
1.13253e-07
5.62701e-16
1.18878e-08
1.40296e-16
1.24808e-09
-8.45678e-17
1.30943e-10
-1.55041e-16
1.36457e-11
3.20924e-17
1.37778e-12
2.62377e-17
1.29944e-13
5.20417e-18
1.13804e-14
6.72205e-18
9.88576e-16
4.33681e-18
8.23994e-17
2.1684e-18
-5.85469e-18
5.20417e-18
-7.80626e-18
5.20417e-18
4.98733e-18
5.85469e-18
7.15573e-18
4.33681e-19
1.34441e-17
1.95156e-18
1.69136e-17
2.81893e-18
1.95156e-18
-1.0842e-18
7.15573e-18
2.38524e-18
1.17094e-17
-1.30104e-18
1.79978e-17
3.03577e-18
-3.03577e-18
1.249e-16
-1.73472e-17
6.245e-17
-1.56125e-17
5.89806e-17
-4.33681e-17
-3.1225e-17
0
-4.16334e-17
-6.59195e-17
-9.02056e-17
-1.38778e-17
0
-2.42861e-17
1.04083e-16
-4.16334e-17
5.20417e-17
-3.1225e-17
-3.46945e-18
-6.93889e-17
3.46945e-17
0
8.32667e-17
-3.1225e-17
2.18575e-16
5.20417e-18
1.87003e-15
-3.29597e-17
1.2667e-14
-7.28584e-17
8.34818e-14
-2.25514e-17
5.46417e-13
-7.28584e-17
3.36475e-12
-9.54098e-17
1.89793e-11
-7.5287e-16
9.572e-11
-8.69096e-16
4.46446e-10
4.02456e-16
1.99456e-09
-9.29812e-16
8.60525e-09
2.65413e-16
3.58788e-08
-2.40086e-15
1.44431e-07
2.51361e-15
5.60604e-07
-1.89258e-15
2.09498e-06
2.85535e-15
7.52526e-06
-3.01668e-15
2.59342e-05
2.74607e-15
8.55659e-05
7.45237e-15
0.000268399
1.40304e-14
0.00078003
3.04826e-14
0.0018162
1.17018e-13
0.00273456
3.4122e-15
0.00359241
2.89942e-14
0.00447739
6.88772e-14
0.0053635
-4.60743e-15
0.00621766
2.98069e-14
0.00701915
9.99452e-14
0.00775531
7.16389e-14
0.00841911
2.18948e-13
0.00900773
1.54988e-13
0.00952102
2.01381e-13
0.00996057
2.78729e-13
0.0103291
-2.78537e-13
0.0106303
7.99258e-13
0.0108676
-6.14568e-13
0.0110447
6.87984e-13
0.0111642
6.65676e-13
0.0112311
-5.07457e-13
0.0112526
-7.36778e-13
0.0112505
2.36007e-12
0.0112325
-8.02657e-14
0.0111998
8.45357e-13
0.0111362
-1.8126e-12
0.0110498
8.61001e-13
0.010918
7.78342e-13
0.0107302
1.90186e-12
0.0104946
2.53152e-12
0.0101996
1.46213e-12
0.00986513
1.41443e-12
0.00950015
6.95124e-13
0.00912969
8.16223e-13
0.00876648
1.7916e-12
0.00843842
1.9241e-12
0.00815506
1.97816e-12
0.00792079
2.83348e-12
0.00773663
4.03975e-12
0.00759286
5.68455e-12
0.0074824
5.13743e-12
0.0073815
3.60361e-12
0.0072391
5.69573e-12
0.00687142
3.30634e-12
0.00554974
4.73299e-13
0.00202028
-2.51563e-12
0.00046454
6.65863e-14
8.36002e-05
2.08174e-13
1.01635e-05
-9.57665e-14
1.07892e-06
-3.11758e-14
1.13253e-07
-2.17968e-15
1.18878e-08
-1.455e-16
1.24808e-09
-9.86624e-17
1.30943e-10
2.19009e-17
1.36456e-11
-8.23994e-17
1.37779e-12
-2.05998e-17
1.29955e-13
-3.46945e-18
1.13722e-14
7.15573e-18
9.95081e-16
4.98733e-18
8.91214e-17
8.45678e-18
-1.30104e-18
3.46945e-18
8.23994e-18
9.32414e-18
8.67362e-18
6.72205e-18
5.85469e-18
5.85469e-18
8.89046e-18
1.73472e-18
1.27936e-17
5.20417e-18
8.23994e-18
-1.73472e-18
6.72205e-18
3.68629e-18
7.80626e-18
-6.50521e-19
3.03577e-18
1.95156e-18
-3.03577e-18
1.07553e-16
-1.73472e-18
5.89806e-17
-8.67362e-18
8.67362e-17
-1.04083e-17
-2.42861e-17
-1.9082e-17
2.42861e-17
-1.04083e-17
-1.38778e-17
-1.9082e-17
2.42861e-17
-2.77556e-17
9.02056e-17
-3.46945e-17
6.93889e-17
-3.46945e-18
9.71445e-17
-3.81639e-17
5.89806e-17
-1.38778e-17
9.36751e-17
-2.94903e-17
3.85109e-16
-1.56125e-17
1.80064e-15
-2.08167e-17
1.25074e-14
-2.60209e-17
8.34402e-14
-2.42861e-17
5.46212e-13
-2.42861e-17
3.36283e-12
-4.16334e-17
1.89757e-11
-1.59595e-16
9.5724e-11
-2.34188e-16
4.46447e-10
5.55112e-17
1.99456e-09
-2.34188e-16
8.60525e-09
1.9082e-17
3.58788e-08
4.33681e-17
1.44431e-07
4.44089e-16
5.60604e-07
-5.51642e-16
2.09498e-06
6.01949e-16
7.52526e-06
-4.63171e-16
2.59342e-05
-3.29597e-16
8.55659e-05
9.76129e-15
0.000268399
2.24959e-14
0.00078003
3.43649e-15
0.0018162
1.56016e-13
0.00273456
6.23373e-14
0.00359241
1.03703e-13
0.00447739
9.39006e-14
0.0053635
7.35557e-14
0.00621766
1.30417e-13
0.00701915
2.33325e-13
0.00775531
2.57091e-13
0.00841911
3.35866e-13
0.00900773
4.31241e-13
0.00952102
3.78172e-13
0.00996057
7.45107e-13
0.0103291
3.63043e-14
0.0106303
1.10146e-12
0.0108676
2.03699e-13
0.0110447
1.32263e-12
0.0111642
3.33174e-13
0.0112311
2.06921e-12
0.0112526
-2.98357e-13
0.0112505
1.6708e-12
0.0112325
-1.67163e-12
0.0111998
3.05721e-12
0.0111362
9.80404e-13
0.0110498
1.26544e-13
0.010918
-4.11251e-13
0.0107302
1.7031e-12
0.0104946
1.97195e-12
0.0101996
1.94627e-12
0.00986513
2.4963e-12
0.00950015
3.87441e-12
0.00912969
3.54523e-12
0.00876648
3.60782e-12
0.00843842
3.57972e-12
0.00815506
3.63453e-12
0.00792079
3.76469e-12
0.00773663
4.69587e-12
0.00759286
5.88643e-12
0.0074824
5.17673e-12
0.0073815
5.12526e-12
0.0072391
5.04518e-12
0.00687142
3.75198e-13
0.00554974
4.57787e-12
0.00202028
1.16109e-11
0.00046454
-1.86456e-12
8.36002e-05
-1.29615e-13
1.01635e-05
4.63698e-14
1.07892e-06
5.50992e-16
1.13253e-07
-6.5269e-17
1.18878e-08
-6.37511e-17
1.24808e-09
-4.40186e-17
1.30943e-10
4.81386e-17
1.36459e-11
-8.45678e-18
1.37785e-12
1.27936e-17
1.29958e-13
2.1684e-18
1.13848e-14
2.1684e-18
9.91611e-16
-8.67362e-19
8.19657e-17
6.72205e-18
4.98733e-18
3.46945e-18
-4.77049e-18
4.33681e-18
-9.75782e-18
3.25261e-18
0
1.30104e-18
3.68629e-18
1.95156e-18
3.25261e-18
2.60209e-18
6.28837e-18
0
2.38524e-18
-4.33681e-19
8.89046e-18
6.50521e-19
-7.80626e-18
-1.73472e-18
3.25261e-18
6.93889e-17
5.55112e-17
4.85723e-17
6.93889e-18
1.38778e-17
8.67362e-17
-5.20417e-17
1.9082e-17
-3.81639e-17
2.42861e-17
-9.71445e-17
-2.08167e-17
-4.51028e-17
2.08167e-17
4.16334e-17
2.60209e-17
3.46945e-17
1.9082e-17
8.32667e-17
3.1225e-17
1.04083e-16
5.20417e-18
1.56125e-16
1.21431e-17
2.98372e-16
5.20417e-18
1.88044e-15
-6.93889e-18
1.2549e-14
8.67362e-18
8.3468e-14
-1.04083e-17
5.46181e-13
8.67362e-18
3.36273e-12
1.9082e-17
1.89757e-11
3.27863e-16
9.57239e-11
2.96638e-16
4.46447e-10
6.6093e-16
1.99456e-09
1.04083e-17
8.60525e-09
1.63064e-16
3.58788e-08
3.59088e-16
1.44431e-07
-7.14706e-16
5.60604e-07
8.8124e-16
2.09498e-06
-2.5327e-16
7.52526e-06
3.71231e-16
2.59342e-05
-5.96745e-16
8.55659e-05
3.08954e-15
0.000268399
8.6129e-15
0.00078003
-1.46133e-14
0.0018162
9.18241e-14
0.00273456
1.9415e-13
0.00359241
2.9468e-13
0.00447739
3.14744e-13
0.0053635
2.36618e-13
0.00621766
4.53399e-13
0.00701915
3.34138e-13
0.00775531
4.91954e-13
0.00841911
2.6773e-13
0.00900773
6.99061e-13
0.00952102
3.65639e-13
0.00996057
8.34556e-13
0.0103291
5.80354e-13
0.0106303
1.2218e-12
0.0108676
9.52097e-13
0.0110447
1.16717e-12
0.0111642
1.20986e-12
0.0112311
1.53621e-12
0.0112526
1.06976e-12
0.0112505
4.49289e-14
0.0112325
7.91231e-13
0.0111998
-1.27253e-12
0.0111362
1.9316e-12
0.0110498
-1.67575e-12
0.010918
-1.18869e-12
0.0107302
2.29416e-12
0.0104946
1.66121e-12
0.0101996
1.14184e-12
0.00986513
1.73199e-12
0.00950015
2.55297e-12
0.00912969
2.39617e-12
0.00876648
1.86338e-12
0.00843842
1.26425e-12
0.00815506
1.76865e-12
0.00792079
3.14296e-12
0.00773663
4.20347e-12
0.00759286
5.11158e-12
0.0074824
4.09829e-12
0.0073815
6.01023e-12
0.0072391
6.49712e-12
0.00687142
8.76379e-12
0.00554974
8.14275e-12
0.00202028
5.59123e-12
0.00046454
8.57937e-12
8.36002e-05
1.47107e-12
1.01635e-05
4.78762e-15
1.07892e-06
6.75241e-16
1.13253e-07
1.44416e-16
1.18878e-08
5.89806e-17
1.24808e-09
8.91214e-17
1.30943e-10
-6.63532e-17
1.36459e-11
-9.75782e-18
1.37786e-12
2.5804e-17
1.29966e-13
5.85469e-18
1.13841e-14
1.95156e-18
9.9378e-16
-2.81893e-18
8.37004e-17
-3.68629e-18
4.33681e-19
-1.95156e-18
-4.33681e-18
-4.77049e-18
-1.23599e-17
-3.25261e-18
-3.03577e-18
-1.51788e-18
9.1073e-18
6.50521e-19
4.11997e-18
-6.07153e-18
6.93889e-18
-2.1684e-19
3.68629e-18
-5.42101e-18
5.20417e-18
1.0842e-18
1.04083e-17
-4.33681e-18
-3.03577e-18
5.89806e-17
8.84709e-17
8.67362e-17
6.07153e-17
-3.46945e-18
9.19403e-17
-7.28584e-17
1.73472e-18
-6.245e-17
1.09288e-16
-9.02056e-17
2.94903e-17
2.08167e-17
6.245e-17
8.32667e-17
4.85723e-17
3.81639e-17
3.29597e-17
8.67362e-17
5.72459e-17
7.97973e-17
1.04083e-17
1.2837e-16
6.41848e-17
3.05311e-16
-2.42861e-17
1.80758e-15
3.46945e-17
1.25559e-14
-2.42861e-17
8.34194e-14
-6.93889e-18
5.46212e-13
0
3.36268e-12
2.15106e-16
1.89758e-11
6.48787e-16
9.57242e-11
1.04951e-15
4.46447e-10
3.62557e-16
1.99456e-09
-1.71738e-16
8.60525e-09
-1.85615e-15
3.58787e-08
7.42809e-15
1.44431e-07
-7.27543e-15
5.60604e-07
5.56326e-15
2.09498e-06
-1.72605e-15
7.52526e-06
2.73045e-15
2.59342e-05
-1.1692e-15
8.55659e-05
9.73353e-15
0.000268399
3.73139e-15
0.00078003
4.63154e-14
0.0018162
6.06529e-14
0.00273456
4.0544e-13
0.00359241
3.34639e-13
0.00447739
3.826e-13
0.0053635
5.74231e-13
0.00621766
6.18745e-13
0.00701915
6.07321e-13
0.00775531
4.56275e-13
0.00841911
6.6128e-13
0.00900773
5.26949e-13
0.00952102
8.54875e-13
0.00996057
7.95163e-13
0.0103291
9.38169e-13
0.0106303
1.35696e-12
0.0108676
8.82456e-13
0.0110447
1.22704e-12
0.0111642
1.68736e-13
0.0112311
1.90655e-12
0.0112526
-9.19968e-13
0.0112505
-2.16244e-13
0.0112325
4.50055e-13
0.0111998
-6.6399e-13
0.0111362
-6.90348e-13
0.0110498
-1.29209e-13
0.010918
-1.1692e-14
0.0107302
1.21557e-12
0.0104946
6.18456e-13
0.0101996
1.18918e-12
0.00986513
1.05052e-12
0.00950015
8.09792e-13
0.00912969
1.08471e-12
0.00876648
1.19164e-12
0.00843842
1.25101e-12
0.00815506
1.70706e-12
0.00792079
3.34394e-12
0.00773663
6.05464e-12
0.00759286
8.08953e-12
0.0074824
8.3096e-12
0.0073815
1.13814e-11
0.0072391
1.12365e-11
0.00687142
1.2257e-11
0.00554974
1.03358e-11
0.00202028
1.53579e-11
0.00046454
1.45292e-12
8.36002e-05
3.38416e-13
1.01635e-05
8.04504e-14
1.07892e-06
6.79253e-15
1.13253e-07
5.69423e-16
1.18878e-08
-1.58294e-17
1.24808e-09
-1.97325e-17
1.30943e-10
1.03216e-16
1.36457e-11
4.35849e-17
1.37777e-12
6.72205e-18
1.29942e-13
-3.90313e-18
1.13861e-14
-5.85469e-18
1.00245e-15
-6.72205e-18
8.13152e-17
-7.15573e-18
2.38524e-18
-5.63785e-18
-4.55365e-18
-4.98733e-18
-9.1073e-18
-3.03577e-18
-3.03577e-18
4.33681e-19
2.1684e-19
-1.73472e-18
0
-7.15573e-18
4.33681e-18
-2.1684e-18
-4.33681e-19
-8.67362e-19
-1.95156e-18
1.0842e-18
1.30104e-18
1.95156e-18
2.81893e-18
3.81639e-17
5.89806e-17
-2.77556e-17
1.04083e-16
-1.11022e-16
7.45931e-17
-4.51028e-17
1.04083e-16
-6.93889e-17
8.50015e-17
0
7.80626e-17
6.245e-17
9.36751e-17
6.59195e-17
4.51028e-17
0
5.20417e-17
-1.04083e-17
5.72459e-17
1.45717e-16
4.51028e-17
0
6.76542e-17
2.60209e-16
5.0307e-17
1.78677e-15
4.85723e-17
1.25594e-14
7.11237e-17
8.35373e-14
2.08167e-17
5.46542e-13
6.41848e-17
3.36521e-12
4.85723e-17
1.89808e-11
-8.1532e-17
9.57239e-11
-6.08888e-16
4.46447e-10
-1.97758e-16
1.99456e-09
5.37764e-16
8.60524e-09
3.41047e-15
3.58788e-08
-6.22766e-15
1.44431e-07
8.14453e-15
5.60604e-07
-5.72112e-15
2.09498e-06
9.02056e-16
7.52526e-06
8.25728e-15
2.59342e-05
-6.8192e-15
8.55659e-05
2.85171e-14
0.000268399
1.79769e-14
0.00078003
1.51405e-13
0.0018162
1.4783e-13
0.00273456
3.35489e-13
0.00359241
2.93697e-13
0.00447739
3.28548e-13
0.0053635
4.19197e-13
0.00621766
4.08036e-13
0.00701915
6.57478e-13
0.00775531
5.35376e-13
0.00841911
6.96035e-13
0.00900773
7.87568e-13
0.00952102
7.90861e-13
0.00996057
1.20203e-12
0.0103291
5.92274e-13
0.0106303
1.59917e-12
0.0108676
8.86801e-13
0.0110447
1.32837e-12
0.0111642
-1.68517e-12
0.0112311
3.82233e-12
0.0112526
-3.58163e-12
0.0112505
1.46141e-13
0.0112325
-2.65331e-12
0.0111998
2.80919e-12
0.0111362
-2.53344e-12
0.0110498
1.63268e-12
0.010918
-8.41102e-13
0.0107302
-1.63347e-12
0.0104946
-2.20669e-12
0.0101996
2.4451e-12
0.00986513
1.44481e-12
0.00950015
1.7346e-12
0.00912969
2.3554e-12
0.00876648
2.44886e-12
0.00843842
2.69664e-12
0.00815506
2.88725e-12
0.00792079
3.32151e-12
0.00773663
4.8721e-12
0.00759286
6.10511e-12
0.0074824
9.17955e-12
0.0073815
1.18232e-11
0.0072391
1.37539e-11
0.00687142
1.36547e-11
0.00554974
1.46744e-11
0.00202028
7.96267e-12
0.00046454
7.44003e-12
8.36002e-05
8.10848e-13
1.01635e-05
1.00761e-13
1.07892e-06
1.50862e-14
1.13253e-07
1.22862e-15
1.18878e-08
1.49186e-16
1.24808e-09
-9.97466e-18
1.30943e-10
3.33934e-17
1.36456e-11
-5.20417e-17
1.37774e-12
-2.94903e-17
1.29932e-13
-1.53957e-17
1.13807e-14
-2.60209e-18
9.92262e-16
-6.93889e-18
7.7412e-17
-1.0842e-18
-1.51788e-18
-2.38524e-18
-1.73472e-18
6.50521e-19
2.38524e-18
-4.33681e-19
-6.28837e-18
1.30104e-18
1.51788e-18
1.51788e-18
1.01915e-17
4.98733e-18
1.23599e-17
0
1.4962e-17
4.11997e-18
1.04083e-17
-5.42101e-18
9.75782e-18
6.72205e-18
3.03577e-18
1.76942e-16
5.37764e-17
6.245e-17
6.93889e-17
-3.46945e-18
1.38778e-17
-9.02056e-17
3.46945e-17
-1.31839e-16
1.04083e-17
-1.249e-16
2.77556e-17
-2.08167e-17
5.37764e-17
-1.73472e-17
3.46945e-17
-6.245e-17
4.68375e-17
-1.04083e-17
2.08167e-17
6.59195e-17
6.41848e-17
-4.51028e-17
5.0307e-17
2.35922e-16
8.50015e-17
1.84575e-15
4.51028e-17
1.24831e-14
8.67362e-17
8.34367e-14
1.02349e-16
5.46539e-13
5.37764e-17
3.36347e-12
7.45931e-17
1.89772e-11
-1.5786e-16
9.57263e-11
-5.63785e-16
4.46446e-10
5.0307e-16
1.99456e-09
-2.15106e-16
8.60525e-09
9.76649e-16
3.58787e-08
-2.89699e-16
1.44431e-07
-3.96731e-15
5.60604e-07
1.40634e-14
2.09498e-06
-1.98938e-14
7.52526e-06
1.72345e-14
2.59342e-05
2.21524e-15
8.55659e-05
6.53991e-15
0.000268399
4.46605e-14
0.00078003
4.99011e-14
0.0018162
2.63282e-13
0.00273456
5.04612e-13
0.00359241
2.16544e-13
0.00447739
3.19056e-13
0.0053635
2.39688e-13
0.00621766
3.78155e-13
0.00701915
3.2985e-13
0.00775531
6.33771e-13
0.00841911
5.37581e-13
0.00900773
8.40239e-13
0.00952102
8.13194e-13
0.00996057
1.37779e-12
0.0103291
3.64716e-13
0.0106303
2.02848e-12
0.0108676
8.5165e-13
0.0110447
1.3359e-12
0.0111642
-1.79032e-12
0.0112311
6.08395e-12
0.0112526
-3.1261e-12
0.0112505
1.5255e-13
0.0112325
-2.63891e-12
0.0111998
7.29136e-12
0.0111362
-7.46603e-14
0.0110498
3.15477e-12
0.010918
-7.34886e-13
0.0107302
-1.23517e-12
0.0104946
-2.1715e-12
0.0101996
-1.06663e-12
0.00986513
-1.61455e-12
0.00950015
-7.78872e-13
0.00912969
3.18222e-13
0.00876648
9.01555e-13
0.00843842
8.29672e-13
0.00815506
1.18883e-12
0.00792079
2.02732e-12
0.00773663
3.28405e-12
0.00759286
4.94734e-12
0.0074824
8.22997e-12
0.0073815
1.09524e-11
0.0072391
1.32034e-11
0.00687142
1.51315e-11
0.00554974
2.0873e-11
0.00202028
2.89847e-11
0.00046454
1.38186e-12
8.36002e-05
1.21031e-12
1.01635e-05
4.86911e-14
1.07892e-06
3.21401e-15
1.13253e-07
3.59955e-16
1.18878e-08
4.72712e-17
1.24808e-09
-3.46945e-17
1.30943e-10
-6.28837e-18
1.36458e-11
-3.16587e-17
1.37781e-12
-1.14925e-17
1.29948e-13
-3.03577e-18
1.13913e-14
-1.95156e-18
1.01633e-15
-2.1684e-18
8.86877e-17
-5.42101e-18
1.71304e-17
-3.03577e-18
2.01662e-17
-4.55365e-18
8.67362e-18
-7.58942e-18
-5.42101e-18
-8.23994e-18
-6.50521e-19
-7.15573e-18
-3.68629e-18
-4.11997e-18
6.72205e-18
-6.50521e-18
6.72205e-18
-7.37257e-18
1.40946e-17
-9.97466e-18
4.77049e-18
-6.07153e-18
-1.01915e-17
9.71445e-17
-9.02056e-17
-1.17961e-16
-7.97973e-17
-6.59195e-17
4.16334e-17
1.73472e-17
3.46945e-18
3.46945e-17
1.249e-16
1.38778e-16
1.73472e-17
2.39392e-16
1.88044e-15
1.26704e-14
8.35165e-14
5.4633e-13
3.36313e-12
1.89762e-11
9.57253e-11
4.46448e-10
1.99456e-09
8.60525e-09
3.58787e-08
1.44431e-07
5.60604e-07
2.09498e-06
7.52526e-06
2.59342e-05
8.55659e-05
0.000268399
0.00078003
0.0018162
0.00273456
0.00359241
0.00447739
0.0053635
0.00621766
0.00701915
0.00775531
0.00841911
0.00900773
0.00952102
0.00996057
0.0103291
0.0106303
0.0108676
0.0110447
0.0111642
0.0112311
0.0112526
0.0112505
0.0112325
0.0111998
0.0111362
0.0110498
0.010918
0.0107302
0.0104946
0.0101996
0.00986513
0.00950015
0.00912969
0.00876648
0.00843842
0.00815506
0.00792079
0.00773663
0.00759286
0.0074824
0.0073815
0.0072391
0.00687142
0.00554974
0.00202028
0.00046454
8.36002e-05
1.01635e-05
1.07892e-06
1.13253e-07
1.18878e-08
1.24808e-09
1.30943e-10
1.36458e-11
1.37784e-12
1.29955e-13
1.13757e-14
1.00354e-15
9.2374e-17
2.1684e-18
-5.85469e-18
-3.46945e-18
1.95156e-18
6.07153e-18
-3.03577e-18
0
8.67362e-18
1.19262e-17
3.03577e-18
)
;

boundaryField
{
    sides1
    {
        type            calculated;
        value           nonuniform List<scalar> 
20
(
-5.20417e-18
0
1.53957e-17
-4.98733e-18
-1.82146e-17
1.12757e-17
3.46945e-18
1.53957e-17
-6.50521e-19
-5.20417e-18
1.04083e-17
-1.2837e-16
5.89806e-17
-9.02056e-17
-2.08167e-16
-1.31839e-16
-3.1225e-17
4.16334e-17
-1.11022e-16
-3.46945e-17
)
;
    }
    sides2
    {
        type            calculated;
        value           nonuniform List<scalar> 
200
(
1.9082e-17
-5.20417e-18
1.38778e-17
-5.0307e-17
-1.38778e-17
-5.55112e-17
-2.08167e-17
-5.72459e-17
-1.9082e-17
3.46945e-18
3.98986e-17
3.1225e-17
8.32667e-17
9.71445e-17
4.85723e-17
1.11022e-16
4.33681e-17
7.45931e-17
-6.07153e-16
-1.51962e-15
-1.26982e-15
-3.00107e-15
1.50227e-15
-1.68442e-15
-1.8735e-16
6.92155e-16
-4.77049e-16
8.36137e-16
-8.1532e-17
4.29691e-15
-1.28213e-14
2.8387e-14
2.14932e-15
1.19401e-14
-1.28491e-14
-5.09887e-14
1.35291e-14
-6.11273e-14
1.70168e-14
-7.8557e-15
5.27729e-14
-4.01675e-15
4.09021e-13
-7.64781e-13
1.82934e-12
-1.19857e-12
-2.6318e-13
1.78641e-12
1.91847e-12
-3.56915e-12
2.82692e-12
5.42326e-13
3.70262e-12
-2.80495e-12
1.10532e-12
1.57123e-12
1.63157e-12
3.37795e-12
4.10895e-12
4.7283e-12
5.06591e-12
4.80904e-12
4.18287e-12
3.66928e-12
3.63691e-12
2.76751e-12
2.235e-12
4.01683e-13
-1.45454e-13
-1.79203e-12
-1.38008e-12
-3.14351e-12
-2.65788e-12
-1.17742e-12
-3.0092e-13
-5.95747e-14
-1.28701e-14
-5.1608e-17
-6.76542e-17
-2.64545e-17
1.6263e-17
-3.62124e-17
-5.63785e-18
-3.68629e-18
-1.51788e-18
1.0842e-18
-1.51788e-18
4.33681e-19
-2.1684e-18
-2.1684e-19
-2.81893e-18
-3.90313e-18
-4.11997e-18
-8.23994e-18
-7.80626e-18
-9.97466e-18
-1.06252e-17
-9.54098e-18
-9.54098e-18
-1.04083e-17
4.33681e-17
1.38778e-17
1.04083e-17
-1.73472e-17
-3.46945e-18
-1.9082e-17
2.77556e-17
1.04083e-17
1.38778e-17
1.9082e-17
5.55112e-17
4.85723e-17
7.45931e-17
6.59195e-17
5.55112e-17
1.249e-16
7.63278e-17
7.97973e-17
4.68375e-17
-2.67147e-16
9.88792e-17
1.38778e-16
-1.50921e-16
1.32706e-15
-3.85976e-15
6.88165e-15
-5.21631e-15
2.50494e-15
4.01242e-15
1.27676e-15
1.38656e-14
1.14769e-14
1.08046e-13
1.47823e-13
1.93871e-13
2.06335e-13
1.92519e-13
2.50403e-13
2.39936e-13
3.86765e-13
3.80083e-13
5.71423e-13
5.35523e-13
1.24852e-12
9.39041e-14
2.15514e-12
4.01738e-13
2.11276e-12
-1.44461e-12
5.55087e-12
-8.00358e-13
7.03463e-13
1.60219e-13
4.41644e-12
2.2549e-12
1.92967e-12
1.67326e-12
-2.7364e-13
-1.04606e-12
-1.55517e-12
-1.81379e-12
-1.80093e-12
-1.47299e-12
-1.39475e-12
-1.15788e-12
-5.514e-13
1.29142e-12
3.22516e-12
4.9551e-12
7.33931e-12
9.72292e-12
1.16257e-11
1.30887e-11
1.29625e-11
6.74818e-12
1.06781e-12
2.24745e-13
5.72784e-15
3.19406e-16
3.44776e-17
1.58294e-17
-1.25767e-17
6.50521e-19
-9.97466e-18
-6.50521e-19
4.33681e-19
4.33681e-19
-6.50521e-19
-4.33681e-18
-2.81893e-18
-5.20417e-18
-8.0231e-18
-1.14925e-17
-8.45678e-18
-8.67362e-18
-8.45678e-18
-9.75782e-18
-7.58942e-18
-9.32414e-18
-8.23994e-18
)
;
    }
    empty
    {
        type            empty;
        value           nonuniform 0();
    }
}


// ************************************************************************* //
