/*--------------------------------*- C++ -*----------------------------------*\
| =========                 |                                                 |
| \\      /  F ield         | OpenFOAM: The Open Source CFD Toolbox           |
|  \\    /   O peration     | Version:  3.0.0                                 |
|   \\  /    A nd           | Web:      www.OpenFOAM.org                      |
|    \\/     M anipulation  |                                                 |
\*---------------------------------------------------------------------------*/
FoamFile
{
    version     2.0;
    format      ascii;
    class       volVectorField;
    location    "0.00015";
    object      U;
}
// * * * * * * * * * * * * * * * * * * * * * * * * * * * * * * * * * * * * * //

dimensions      [0 1 -1 0 0 0 0];

internalField   nonuniform List<vector> 
1000
(
(-3.79356e-14 -3.2362e-13 0)
(2.98232e-13 1.01259e-13 0)
(-1.22153e-12 -2.83933e-13 0)
(-2.08938e-13 9.4197e-13 0)
(-9.39052e-13 3.11655e-13 0)
(-2.30532e-13 1.06774e-12 0)
(3.71185e-13 3.85192e-13 0)
(-8.28747e-14 1.11035e-12 0)
(1.02718e-12 3.68559e-13 0)
(1.39194e-12 -5.89461e-14 0)
(2.84167e-12 -7.7447e-13 0)
(1.47774e-12 -6.25354e-13 0)
(1.48649e-12 -1.6464e-12 0)
(5.06294e-12 -1.91458e-12 0)
(3.10167e-11 -9.66482e-13 0)
(2.13686e-10 -2.23324e-12 0)
(1.41564e-09 -8.50341e-13 0)
(9.40273e-09 -1.47132e-12 0)
(6.17605e-08 1.15788e-11 0)
(3.59265e-07 3.02277e-11 0)
(1.77394e-06 2.50305e-11 0)
(8.21161e-06 5.92104e-11 0)
(3.66023e-05 -2.99458e-11 0)
(0.000157688 3.36608e-11 0)
(0.000656391 3.3876e-12 0)
(0.00263669 -1.3553e-11 0)
(0.0102061 9.51328e-12 0)
(0.0380107 -1.6595e-11 0)
(0.135997 1.61081e-12 0)
(0.466863 -8.46771e-11 0)
(1.53797 2.54597e-10 0)
(4.9576 -5.82836e-10 0)
(14.6994 -3.08516e-11 0)
(25.7597 -2.51017e-10 0)
(35.7419 2.82035e-10 0)
(46.8358 1.15207e-09 0)
(59.0626 -3.18792e-10 0)
(72.183 1.49083e-09 0)
(85.9552 -4.39258e-10 0)
(100.194 2.05517e-10 0)
(114.756 -1.4824e-09 0)
(129.533 1.0862e-10 0)
(144.432 -1.25476e-08 0)
(159.373 2.4573e-08 0)
(174.276 -6.17865e-08 0)
(189.051 4.24836e-08 0)
(203.583 9.78076e-09 0)
(217.675 -6.98344e-08 0)
(231.013 -7.84844e-08 0)
(242.991 1.52201e-07 0)
(252.903 -1.24887e-07 0)
(260.062 -2.4689e-08 0)
(264.248 -1.7119e-07 0)
(266.752 1.31397e-07 0)
(268.513 -5.25938e-08 0)
(268.481 -7.45144e-08 0)
(270.538 -7.93543e-08 0)
(270.774 -1.66413e-07 0)
(272.749 -2.08068e-07 0)
(273.167 -2.45481e-07 0)
(274.768 -2.7316e-07 0)
(275.383 -2.69218e-07 0)
(276.333 -2.44123e-07 0)
(276.276 -2.23058e-07 0)
(276.12 -2.29799e-07 0)
(275.598 -1.81044e-07 0)
(274.862 -1.50555e-07 0)
(274.115 -2.78536e-08 0)
(273.375 1.00932e-08 0)
(272.543 1.27416e-07 0)
(271.537 9.91988e-08 0)
(269.6 2.28932e-07 0)
(264.59 1.96495e-07 0)
(247.907 9.18235e-08 0)
(186.827 2.83535e-08 0)
(66.1329 7.72101e-09 0)
(14.4531 2.01833e-09 0)
(1.56125 5.26647e-12 0)
(0.153338 1.08409e-11 0)
(0.0159818 4.22741e-12 0)
(0.00167672 -2.57972e-12 0)
(0.000176035 5.7233e-12 0)
(1.84745e-05 9.4163e-13 0)
(1.93181e-06 5.98913e-13 0)
(1.94331e-07 2.12282e-13 0)
(1.73592e-08 -1.62531e-13 0)
(1.42538e-09 2.11115e-13 0)
(1.26878e-10 -2.91797e-14 0)
(1.09797e-11 3.42132e-13 0)
(1.25619e-12 7.7618e-14 0)
(-6.68507e-13 4.34778e-13 0)
(6.96228e-13 6.243e-13 0)
(-6.43121e-13 6.48519e-13 0)
(-5.01891e-13 1.33687e-12 0)
(1.494e-13 1.27399e-12 0)
(6.06646e-13 1.56097e-12 0)
(6.06938e-14 1.67214e-12 0)
(4.27774e-13 1.50772e-12 0)
(9.46298e-13 1.53675e-12 0)
(-4.25148e-13 1.64501e-12 0)
(1.24195e-12 -1.72198e-12 0)
(2.30532e-13 -2.09492e-12 0)
(1.15616e-12 -1.29798e-12 0)
(1.05286e-12 -1.26238e-12 0)
(-1.17309e-13 -8.27579e-13 0)
(-3.39669e-13 -8.68433e-13 0)
(-3.40837e-13 -1.0514e-12 0)
(3.04652e-13 -8.98198e-13 0)
(-1.31549e-12 -1.03156e-12 0)
(-9.19792e-13 -7.05894e-13 0)
(1.25421e-12 -2.1991e-12 0)
(-1.44739e-13 -2.12965e-12 0)
(-9.31465e-13 -2.87873e-12 0)
(7.2597e-12 -2.17517e-12 0)
(2.96843e-11 -2.89711e-12 0)
(2.12802e-10 -1.42404e-12 0)
(1.41818e-09 -3.33746e-12 0)
(9.4122e-09 -1.61139e-12 0)
(6.18281e-08 9.46668e-12 0)
(3.59325e-07 2.51183e-11 0)
(1.77391e-06 1.49612e-11 0)
(8.21171e-06 4.44894e-11 0)
(3.66019e-05 -7.15433e-11 0)
(0.000157689 1.45582e-10 0)
(0.000656391 -1.01179e-10 0)
(0.00263669 5.91771e-11 0)
(0.0102061 4.44565e-12 0)
(0.0380107 -1.90757e-11 0)
(0.135997 5.88429e-11 0)
(0.466863 -9.02739e-11 0)
(1.53797 5.99833e-11 0)
(4.9576 1.03434e-10 0)
(14.6994 -2.37323e-09 0)
(25.7597 2.81999e-10 0)
(35.7419 2.66327e-10 0)
(46.8358 -3.29855e-11 0)
(59.0626 1.14479e-09 0)
(72.183 2.94158e-10 0)
(85.9552 -3.3453e-09 0)
(100.194 -3.96089e-09 0)
(114.756 -9.79167e-09 0)
(129.533 -1.06227e-08 0)
(144.432 -2.16172e-08 0)
(159.373 8.69379e-10 0)
(174.276 -6.99735e-08 0)
(189.051 3.69945e-08 0)
(203.583 -4.89514e-08 0)
(217.675 -6.25505e-08 0)
(231.013 -1.06839e-07 0)
(242.991 2.481e-07 0)
(252.903 -2.23804e-07 0)
(260.062 -5.91776e-08 0)
(264.248 -1.65065e-07 0)
(266.752 2.80727e-07 0)
(268.513 9.58988e-08 0)
(268.481 -1.17478e-07 0)
(270.538 -2.32609e-07 0)
(270.774 -2.02824e-07 0)
(272.749 -2.4584e-07 0)
(273.167 -6.18714e-08 0)
(274.768 -3.10123e-09 0)
(275.383 5.41279e-08 0)
(276.333 5.69871e-08 0)
(276.276 3.92693e-08 0)
(276.12 -7.13641e-10 0)
(275.598 -1.26522e-08 0)
(274.862 2.42674e-08 0)
(274.115 1.14446e-07 0)
(273.375 1.5907e-07 0)
(272.543 2.41705e-07 0)
(271.537 2.06567e-07 0)
(269.6 2.36276e-07 0)
(264.59 2.84761e-07 0)
(247.907 2.87071e-07 0)
(186.827 1.70403e-07 0)
(66.1329 7.1081e-08 0)
(14.4531 1.76619e-08 0)
(1.56125 1.39357e-09 0)
(0.153338 1.26263e-10 0)
(0.0159818 5.42952e-11 0)
(0.00167672 -3.22184e-12 0)
(0.000176035 3.10114e-11 0)
(1.84745e-05 1.026e-11 0)
(1.9318e-06 5.4585e-12 0)
(1.94328e-07 3.27834e-12 0)
(1.73597e-08 3.52783e-13 0)
(1.42535e-09 2.59116e-13 0)
(1.26864e-10 6.08689e-13 0)
(1.16447e-11 4.54762e-26 0)
(8.56424e-13 -2.20453e-13 0)
(6.90392e-13 -3.06679e-13 0)
(1.08082e-12 -4.62061e-13 0)
(7.51086e-13 -7.23657e-13 0)
(5.98768e-13 8.00983e-14 0)
(9.28498e-13 -3.27688e-13 0)
(1.07994e-12 1.00232e-12 0)
(-1.64282e-13 -4.5141e-13 0)
(1.49692e-13 1.28201e-12 0)
(1.43885e-12 2.29644e-13 0)
(-8.75391e-16 1.1755e-12 0)
(-5.7487e-13 -1.087e-12 0)
(6.92762e-13 -8.23786e-13 0)
(-2.2703e-13 -1.49875e-12 0)
(2.49791e-13 -8.43337e-13 0)
(-2.34033e-13 -2.12877e-12 0)
(-4.87326e-13 -1.45731e-12 0)
(1.23437e-12 -1.85709e-12 0)
(-1.05636e-13 -1.29827e-12 0)
(1.41179e-12 -1.48153e-12 0)
(-8.53259e-13 -8.78355e-14 0)
(9.20959e-13 -8.15907e-13 0)
(2.673e-13 -5.62322e-13 0)
(6.34983e-13 -1.22853e-13 0)
(4.91704e-12 -7.33616e-13 0)
(3.18834e-11 -8.06569e-13 0)
(2.1477e-10 -5.31682e-13 0)
(1.4123e-09 -9.95955e-13 0)
(9.41873e-09 -2.92396e-13 0)
(6.18186e-08 -4.00104e-12 0)
(3.5932e-07 -1.87483e-11 0)
(1.77388e-06 -3.29152e-11 0)
(8.21171e-06 -3.29155e-11 0)
(3.66018e-05 8.59968e-13 0)
(0.000157689 -2.78687e-11 0)
(0.00065639 -5.63507e-11 0)
(0.00263669 7.02887e-11 0)
(0.0102061 -1.32024e-10 0)
(0.0380107 6.57528e-11 0)
(0.135997 -2.83734e-11 0)
(0.466863 -5.48326e-11 0)
(1.53797 -1.96987e-10 0)
(4.9576 6.21608e-10 0)
(14.6994 -6.37788e-10 0)
(25.7597 3.39312e-09 0)
(35.7419 2.50551e-09 0)
(46.8358 3.46532e-09 0)
(59.0626 4.80546e-09 0)
(72.183 1.33932e-09 0)
(85.9552 7.79863e-10 0)
(100.194 -4.99848e-09 0)
(114.756 -7.6957e-09 0)
(129.533 -1.25055e-08 0)
(144.432 -1.73899e-08 0)
(159.373 -1.15073e-08 0)
(174.276 -3.70457e-08 0)
(189.051 5.64966e-09 0)
(203.583 -7.14945e-08 0)
(217.675 3.06867e-08 0)
(231.013 -6.11379e-08 0)
(242.991 -8.25837e-08 0)
(252.903 1.78508e-07 0)
(260.062 -2.52358e-07 0)
(264.248 1.85847e-07 0)
(266.752 -1.4425e-07 0)
(268.513 1.90115e-07 0)
(268.481 -5.11849e-08 0)
(270.538 -1.57271e-07 0)
(270.774 3.53306e-08 0)
(272.749 1.07069e-07 0)
(273.167 9.93572e-08 0)
(274.768 9.67119e-08 0)
(275.383 8.08994e-08 0)
(276.333 1.14207e-07 0)
(276.276 1.50233e-07 0)
(276.12 2.19935e-07 0)
(275.598 1.89256e-07 0)
(274.862 2.86312e-07 0)
(274.115 1.97916e-07 0)
(273.375 1.9799e-07 0)
(272.543 1.81985e-07 0)
(271.537 2.94474e-07 0)
(269.6 2.77592e-07 0)
(264.59 5.6782e-07 0)
(247.907 7.24934e-07 0)
(186.827 7.59311e-07 0)
(66.1329 2.76917e-07 0)
(14.4531 5.59396e-08 0)
(1.56125 6.89739e-09 0)
(0.153338 7.57085e-10 0)
(0.0159818 3.74959e-11 0)
(0.00167672 1.62994e-11 0)
(0.000176035 1.57645e-12 0)
(1.84745e-05 2.85086e-12 0)
(1.9318e-06 1.60611e-11 0)
(1.94319e-07 -6.47789e-14 0)
(1.73565e-08 9.22954e-13 0)
(1.42645e-09 3.87361e-13 0)
(1.25262e-10 9.77666e-13 0)
(1.03725e-11 -3.58327e-13 0)
(2.54739e-13 6.78574e-13 0)
(-9.49799e-13 -4.66292e-13 0)
(-3.53658e-13 -1.04609e-13 0)
(5.30779e-13 -4.93575e-13 0)
(6.65589e-13 -5.70171e-13 0)
(1.93666e-12 -4.78547e-13 0)
(6.0723e-13 -4.67751e-13 0)
(-1.19345e-13 -4.84821e-13 0)
(1.13305e-12 -3.83567e-13 0)
(8.71014e-13 -8.05798e-13 0)
(1.23751e-12 -6.69966e-13 0)
(9.50724e-13 -1.20022e-12 0)
(4.45889e-13 5.50941e-13 0)
(1.1013e-12 -9.78738e-13 0)
(-1.04469e-13 6.4257e-13 0)
(-4.86159e-13 -8.89735e-13 0)
(-3.76438e-13 6.17475e-13 0)
(-5.2176e-13 -3.76438e-13 0)
(6.99766e-13 -4.98123e-13 0)
(8.71351e-13 -1.06511e-13 0)
(-2.21194e-13 -9.72902e-13 0)
(9.39635e-14 3.43463e-13 0)
(1.12406e-12 -2.90061e-13 0)
(-9.1629e-14 4.81782e-13 0)
(3.75037e-12 2.01059e-13 0)
(3.38245e-11 1.95514e-14 0)
(2.11713e-10 -6.05218e-13 0)
(1.41521e-09 -1.61372e-13 0)
(9.40944e-09 -2.41241e-12 0)
(6.18044e-08 -1.63286e-11 0)
(3.5925e-07 -3.07713e-11 0)
(1.7739e-06 -1.68408e-11 0)
(8.21172e-06 -2.93484e-11 0)
(3.66021e-05 6.62848e-11 0)
(0.000157689 -1.41689e-10 0)
(0.000656391 6.6522e-11 0)
(0.00263669 -4.8893e-11 0)
(0.0102061 -1.68872e-11 0)
(0.0380107 -1.24148e-11 0)
(0.135997 -4.14124e-11 0)
(0.466863 4.72765e-11 0)
(1.53797 1.52708e-10 0)
(4.9576 5.35792e-10 0)
(14.6994 1.9474e-09 0)
(25.7597 1.9664e-09 0)
(35.7419 9.04423e-10 0)
(46.8358 2.58407e-09 0)
(59.0626 -1.08853e-10 0)
(72.183 1.18026e-10 0)
(85.9552 -5.95556e-11 0)
(100.194 -1.8082e-09 0)
(114.756 -1.25651e-09 0)
(129.533 -3.03171e-09 0)
(144.432 -2.93123e-09 0)
(159.373 -3.93168e-09 0)
(174.276 -9.3998e-09 0)
(189.051 1.82526e-08 0)
(203.583 -3.30776e-08 0)
(217.675 -2.52358e-08 0)
(231.013 1.33796e-07 0)
(242.991 -1.57533e-07 0)
(252.903 4.18162e-08 0)
(260.062 6.8929e-08 0)
(264.248 1.91482e-07 0)
(266.752 -1.62632e-07 0)
(268.513 -9.45778e-08 0)
(268.481 1.36213e-08 0)
(270.538 8.14465e-08 0)
(270.774 1.14678e-07 0)
(272.749 1.15976e-07 0)
(273.167 6.18654e-10 0)
(274.768 -1.21672e-08 0)
(275.383 -2.13052e-08 0)
(276.333 -3.21034e-08 0)
(276.276 -4.936e-08 0)
(276.12 -4.64801e-08 0)
(275.598 2.20187e-08 0)
(274.862 1.49217e-07 0)
(274.115 2.01015e-07 0)
(273.375 3.14403e-07 0)
(272.543 3.1145e-07 0)
(271.537 2.55926e-07 0)
(269.6 2.58232e-07 0)
(264.59 1.5703e-07 0)
(247.907 1.32168e-08 0)
(186.827 -2.77856e-08 0)
(66.1329 -1.45152e-08 0)
(14.4531 -2.83375e-09 0)
(1.56125 -1.93056e-09 0)
(0.153338 -1.63353e-10 0)
(0.0159818 -4.78502e-11 0)
(0.00167672 -2.83442e-13 0)
(0.000176035 -2.36281e-11 0)
(1.84746e-05 -1.58281e-11 0)
(1.93174e-06 1.13655e-13 0)
(1.94321e-07 -2.63872e-12 0)
(1.73584e-08 8.96692e-13 0)
(1.42672e-09 1.23372e-12 0)
(1.24572e-10 7.17237e-13 0)
(1.12607e-11 9.10553e-13 0)
(6.14233e-13 8.15281e-13 0)
(-6.43121e-13 1.36736e-12 0)
(9.91235e-13 1.4015e-12 0)
(-3.04928e-13 1.26231e-12 0)
(3.50448e-13 4.97076e-13 0)
(1.33293e-12 1.18236e-12 0)
(7.70344e-13 -2.8815e-13 0)
(5.55873e-13 1.24568e-12 0)
(3.98303e-13 -2.57657e-13 0)
(7.49918e-13 9.41045e-13 0)
(-4.30692e-13 -6.10148e-13 0)
(2.07712e-12 -3.57178e-13 0)
(1.83842e-13 -6.57453e-13 0)
(7.75053e-13 -7.0531e-13 0)
(4.24879e-13 -6.51325e-13 0)
(-1.17834e-12 -9.35258e-13 0)
(6.30314e-13 -8.64348e-13 0)
(-1.35693e-12 -7.19025e-13 0)
(1.14157e-12 -1.42171e-12 0)
(6.30314e-13 -8.03651e-13 0)
(7.021e-13 -1.49028e-12 0)
(1.2758e-12 -4.39177e-13 0)
(5.64365e-13 -8.40127e-13 0)
(2.12848e-12 -4.03868e-13 0)
(3.66314e-12 -3.95697e-13 2.13095e-33)
(3.04695e-11 -8.56177e-13 0)
(2.12957e-10 -2.97648e-13 0)
(1.41438e-09 -6.06678e-13 0)
(9.40012e-09 -7.54626e-13 0)
(6.17558e-08 -1.1863e-11 0)
(3.59281e-07 -8.46547e-12 0)
(1.77393e-06 -2.37944e-12 0)
(8.2117e-06 -3.39903e-12 0)
(3.66021e-05 -1.30557e-12 0)
(0.000157689 -8.4888e-12 0)
(0.000656391 1.97577e-11 0)
(0.00263669 -2.38564e-11 0)
(0.0102061 4.89621e-11 0)
(0.0380107 -5.21426e-12 0)
(0.135997 5.50754e-12 0)
(0.466863 2.84486e-10 0)
(1.53797 3.13469e-10 0)
(4.9576 6.97812e-10 2.1168e-33)
(14.6994 2.68532e-09 0)
(25.7597 1.67067e-09 0)
(35.7419 1.13052e-09 0)
(46.8358 3.94258e-10 0)
(59.0626 -1.55204e-11 -1.97268e-33)
(72.183 -4.92928e-10 0)
(85.9552 3.14539e-09 0)
(100.194 3.28962e-09 1.8774e-33)
(114.756 9.07786e-09 0)
(129.533 7.48644e-09 0)
(144.432 8.91791e-09 0)
(159.373 1.57754e-08 -1.74725e-33)
(174.276 -9.49536e-09 0)
(189.051 3.30688e-08 0)
(203.583 -1.98291e-08 0)
(217.675 5.21776e-08 0)
(231.013 -5.24179e-08 0)
(242.991 1.48426e-07 0)
(252.903 -1.34955e-07 0)
(260.062 1.80521e-07 0)
(264.248 -1.72781e-07 0)
(266.752 2.40047e-07 0)
(268.513 -6.45987e-08 0)
(268.481 3.07954e-08 -7.8627e-34)
(270.538 6.16116e-09 7.94693e-34)
(270.774 1.00706e-07 0)
(272.749 9.92762e-08 0)
(273.167 1.03136e-07 -8.53942e-34)
(274.768 1.00264e-07 0)
(275.383 1.43532e-07 0)
(276.333 1.61711e-07 0)
(276.276 2.00969e-07 0)
(276.12 2.10347e-07 0)
(275.598 1.96396e-07 0)
(274.862 2.23172e-07 0)
(274.115 3.26676e-07 0)
(273.375 4.62113e-07 0)
(272.543 4.19946e-07 0)
(271.537 2.87958e-07 0)
(269.6 2.68795e-07 1.19086e-33)
(264.59 5.96176e-08 0)
(247.907 -1.41589e-08 0)
(186.827 -1.32825e-07 0)
(66.1329 -9.18325e-08 0)
(14.4531 -1.16358e-08 0)
(1.56125 -2.2664e-09 0)
(0.153338 -4.92797e-10 0)
(0.0159818 -6.10295e-12 0)
(0.00167672 -2.71731e-11 0)
(0.000176035 5.07957e-12 0)
(1.84746e-05 -2.37202e-12 0)
(1.9318e-06 -1.91499e-11 0)
(1.94332e-07 8.33081e-13 0)
(1.73601e-08 5.37636e-13 0)
(1.42583e-09 9.89192e-13 0)
(1.26056e-10 7.0396e-13 0)
(1.01421e-11 1.70205e-12 0)
(6.0318e-13 7.42623e-13 0)
(-3.46623e-15 1.32374e-12 0)
(-1.03904e-12 6.54355e-13 -8.52337e-34)
(-6.63219e-13 4.40614e-13 0)
(7.24856e-13 2.21912e-13 -8.52337e-34)
(9.0012e-14 6.77699e-13 0)
(7.24276e-13 5.10645e-15 0)
(-1.80289e-13 -1.51297e-13 0)
(8.72414e-13 -8.89981e-15 0)
(1.97296e-13 -1.05631e-13 0)
(-1.47562e-12 3.32649e-13 0)
(1.33533e-12 1.00996e-12 0)
(-1.73336e-13 1.42404e-13 0)
(9.47806e-13 8.4859e-13 0)
(-4.01534e-13 1.9814e-13 0)
(-9.09287e-13 6.11055e-13 0)
(-1.69251e-14 1.27522e-13 0)
(-1.54836e-12 -3.77021e-13 0)
(9.8224e-13 1.40945e-13 0)
(2.8014e-13 2.22653e-13 0)
(9.50724e-13 -1.52034e-13 0)
(6.30314e-13 -6.88677e-14 0)
(1.74796e-12 -1.65749e-13 0)
(8.26412e-13 -5.83624e-14 0)
(5.01217e-12 -4.06786e-13 -2.13095e-33)
(3.03607e-11 2.36951e-13 0)
(2.13276e-10 -1.80924e-13 0)
(1.41489e-09 -4.46473e-14 0)
(9.39862e-09 -3.29748e-13 0)
(6.17555e-08 -4.88494e-13 0)
(3.59281e-07 -5.59404e-13 0)
(1.77393e-06 1.25187e-13 0)
(8.21171e-06 -6.55469e-12 0)
(3.66021e-05 4.5727e-13 0)
(0.000157689 7.02099e-13 0)
(0.000656391 -1.90786e-12 0)
(0.00263669 -6.79687e-13 0)
(0.0102061 -8.37598e-12 0)
(0.0380107 -4e-12 0)
(0.135997 -2.54349e-11 0)
(0.466863 3.29122e-11 0)
(1.53797 4.17932e-10 0)
(4.9576 -3.02009e-10 -2.1168e-33)
(14.6994 2.60928e-09 0)
(25.7597 8.69063e-10 0)
(35.7419 3.18671e-09 0)
(46.8358 3.13797e-09 0)
(59.0626 2.39712e-09 1.97268e-33)
(72.183 3.82158e-09 0)
(85.9552 2.82039e-09 0)
(100.194 6.57211e-09 -1.8774e-33)
(114.756 1.94633e-09 0)
(129.533 1.48365e-08 0)
(144.432 6.63837e-09 0)
(159.373 2.57851e-08 1.74725e-33)
(174.276 1.04529e-08 0)
(189.051 4.19566e-08 0)
(203.583 2.67935e-08 0)
(217.675 5.70386e-08 0)
(231.013 1.61507e-08 0)
(242.991 6.7547e-08 0)
(252.903 1.22918e-07 0)
(260.062 1.05436e-08 0)
(264.248 1.22245e-08 0)
(266.752 3.84412e-08 0)
(268.513 1.13598e-07 0)
(268.481 -1.86115e-08 7.8627e-34)
(270.538 -2.22489e-07 -7.94693e-34)
(270.774 7.94178e-09 0)
(272.749 5.60774e-08 0)
(273.167 6.00352e-08 8.53942e-34)
(274.768 7.46331e-08 0)
(275.383 1.74315e-07 0)
(276.333 2.07738e-07 0)
(276.276 2.44008e-07 0)
(276.12 2.59929e-07 0)
(275.598 2.99781e-07 0)
(274.862 1.67993e-07 0)
(274.115 5.68058e-08 0)
(273.375 1.35614e-07 0)
(272.543 2.73727e-07 0)
(271.537 4.18317e-07 0)
(269.6 4.54499e-07 -1.19086e-33)
(264.59 4.69436e-07 0)
(247.907 5.0202e-07 0)
(186.827 4.58464e-07 0)
(66.1329 1.42073e-07 0)
(14.4531 2.86149e-08 0)
(1.56125 9.65341e-10 0)
(0.153338 5.67945e-11 0)
(0.0159818 1.6292e-12 0)
(0.00167672 -2.30551e-14 0)
(0.000176035 4.14176e-12 0)
(1.84745e-05 4.01225e-14 0)
(1.93181e-06 4.94567e-12 0)
(1.94334e-07 2.2855e-12 0)
(1.73602e-08 1.8675e-13 0)
(1.42669e-09 -6.65297e-14 0)
(1.25946e-10 -1.49984e-13 0)
(1.02001e-11 4.64395e-13 0)
(7.94855e-13 2.61304e-13 0)
(-4.73295e-13 7.98065e-14 0)
(-3.53074e-13 2.73414e-13 8.52337e-34)
(-1.36561e-12 1.79309e-13 0)
(4.59872e-13 3.39506e-13 8.52337e-34)
(9.14492e-13 2.91213e-13 0)
(-1.81206e-13 8.38916e-14 0)
(5.14146e-13 -7.13444e-14 0)
(2.63785e-13 1.77267e-13 0)
(5.86512e-13 -4.28358e-13 0)
(9.38419e-13 2.13012e-13 0)
(3.19243e-13 1.1903e-12 0)
(3.39086e-13 1.8355e-13 0)
(2.68467e-13 1.64845e-12 0)
(-1.78005e-13 -6.86926e-13 0)
(-1.05227e-12 1.32395e-12 0)
(-5.6203e-13 -5.67575e-13 0)
(-1.74095e-12 8.99365e-13 0)
(1.95689e-12 4.76821e-13 0)
(-1.03302e-13 6.67666e-13 0)
(6.99182e-13 8.83899e-13 0)
(9.67649e-13 3.53093e-13 0)
(7.48206e-13 6.93054e-13 0)
(1.71994e-12 -3.68851e-13 0)
(3.18717e-12 5.10088e-13 0)
(3.14095e-11 -3.9453e-13 0)
(2.1193e-10 -1.02718e-13 0)
(1.41599e-09 -1.79464e-13 0)
(9.3973e-09 8.5822e-13 0)
(6.17555e-08 1.30729e-11 0)
(3.59285e-07 2.19813e-11 0)
(1.77394e-06 2.59494e-11 0)
(8.21167e-06 2.60903e-11 0)
(3.66022e-05 -1.59916e-11 0)
(0.000157688 7.90539e-11 0)
(0.000656391 -4.01944e-11 0)
(0.00263669 3.95956e-11 0)
(0.0102061 1.4284e-12 0)
(0.0380107 2.43866e-11 0)
(0.135997 1.44918e-11 0)
(0.466863 1.0575e-10 0)
(1.53797 1.2681e-11 0)
(4.9576 -2.84702e-11 0)
(14.6994 1.23979e-09 0)
(25.7597 4.32856e-09 0)
(35.7419 9.05719e-09 0)
(46.8358 1.22015e-08 0)
(59.0626 1.63493e-08 0)
(72.183 1.94924e-08 0)
(85.9552 1.68045e-08 0)
(100.194 1.9407e-08 0)
(114.756 1.92167e-08 0)
(129.533 1.73068e-08 0)
(144.432 2.41445e-08 0)
(159.373 2.01043e-08 0)
(174.276 3.33931e-08 0)
(189.051 4.05154e-08 0)
(203.583 4.02874e-08 0)
(217.675 2.82558e-09 0)
(231.013 1.3397e-07 0)
(242.991 -6.05117e-10 0)
(252.903 -1.97695e-09 0)
(260.062 -3.646e-08 0)
(264.248 1.88453e-07 0)
(266.752 -1.42008e-07 0)
(268.513 6.44635e-08 0)
(268.481 1.39068e-08 0)
(270.538 7.84499e-09 0)
(270.774 1.09656e-07 0)
(272.749 1.60711e-07 0)
(273.167 1.13589e-07 0)
(274.768 1.08513e-07 0)
(275.383 1.04344e-07 0)
(276.333 8.39898e-08 0)
(276.276 5.76523e-08 0)
(276.12 3.40884e-08 0)
(275.598 7.30802e-08 0)
(274.862 2.20392e-07 0)
(274.115 3.92909e-07 0)
(273.375 5.00966e-07 0)
(272.543 4.43278e-07 0)
(271.537 6.10889e-07 0)
(269.6 6.06736e-07 0)
(264.59 9.05705e-07 0)
(247.907 8.42268e-07 0)
(186.827 6.21752e-07 0)
(66.1329 2.20804e-07 0)
(14.4531 4.77305e-08 0)
(1.56125 1.42675e-09 0)
(0.153338 2.36778e-10 0)
(0.0159818 1.98642e-11 0)
(0.00167672 1.50742e-11 0)
(0.000176035 1.61502e-11 0)
(1.84746e-05 8.6067e-12 0)
(1.9318e-06 1.53109e-11 0)
(1.94316e-07 3.93634e-12 0)
(1.73578e-08 -3.81525e-13 0)
(1.42475e-09 -1.2734e-12 0)
(1.27164e-10 -9.20766e-13 0)
(1.08411e-11 -1.79732e-12 0)
(3.63579e-13 -1.11014e-12 0)
(-1.62239e-13 -1.70176e-12 0)
(-5.06268e-13 -1.10985e-12 0)
(-9.33167e-13 -8.37457e-13 0)
(6.14525e-13 -5.52226e-13 0)
(-2.85961e-14 -1.84766e-12 0)
(-4.1727e-14 -2.20599e-13 0)
(6.44871e-13 -1.41565e-12 0)
(-4.42073e-13 2.33292e-13 0)
(-1.39771e-13 -7.47438e-13 0)
(3.17183e-13 -5.58791e-13 0)
(-3.99199e-13 1.6607e-12 0)
(1.10247e-12 1.84571e-12 0)
(-1.26705e-12 2.45998e-12 0)
(-6.48407e-13 1.48299e-12 0)
(-7.021e-13 2.2131e-12 0)
(-8.20576e-13 1.50692e-12 0)
(6.04051e-13 2.01613e-12 0)
(-4.84408e-14 1.81507e-12 0)
(1.40712e-12 9.39052e-13 0)
(-9.15707e-13 1.21569e-12 0)
(1.75729e-12 1.54077e-13 0)
(-2.53293e-13 1.39486e-12 0)
(3.79939e-13 5.04835e-14 0)
(4.2838e-12 1.96681e-13 0)
(2.9972e-11 3.6068e-13 0)
(2.13745e-10 -5.09212e-13 0)
(1.41496e-09 2.82182e-13 0)
(9.41394e-09 1.1048e-12 0)
(6.18085e-08 3.09292e-12 0)
(3.59299e-07 8.12288e-12 0)
(1.77392e-06 5.25349e-12 0)
(8.21171e-06 7.16778e-12 0)
(3.66019e-05 4.88027e-12 0)
(0.000157689 -2.27612e-12 0)
(0.00065639 3.27819e-11 0)
(0.00263669 2.38971e-11 0)
(0.0102061 -1.14284e-11 0)
(0.0380107 1.67561e-10 0)
(0.135997 -8.5378e-11 0)
(0.466863 3.57458e-10 0)
(1.53797 4.21399e-11 0)
(4.9576 3.22256e-09 0)
(14.6994 1.49689e-09 0)
(25.7597 7.50259e-09 0)
(35.7419 5.06695e-09 0)
(46.8358 5.47792e-09 0)
(59.0626 8.80846e-09 0)
(72.183 6.69931e-09 0)
(85.9552 1.17746e-08 0)
(100.194 1.09425e-08 0)
(114.756 1.61717e-08 0)
(129.533 1.87992e-08 0)
(144.432 2.27356e-08 0)
(159.373 3.72294e-08 0)
(174.276 2.83515e-08 0)
(189.051 5.4841e-08 0)
(203.583 2.51892e-08 0)
(217.675 1.10503e-07 0)
(231.013 -4.67898e-08 0)
(242.991 1.12351e-07 0)
(252.903 -2.08751e-08 0)
(260.062 3.07042e-08 0)
(264.248 -3.74272e-08 0)
(266.752 3.05363e-08 0)
(268.513 -1.01943e-07 0)
(268.481 -2.14496e-08 0)
(270.538 1.49677e-08 0)
(270.774 4.0093e-08 0)
(272.749 1.23709e-08 0)
(273.167 8.98824e-08 0)
(274.768 9.32479e-08 0)
(275.383 1.09027e-07 0)
(276.333 1.53121e-07 0)
(276.276 1.792e-07 0)
(276.12 2.06112e-07 0)
(275.598 2.2491e-07 0)
(274.862 3.02584e-07 0)
(274.115 4.9476e-07 0)
(273.375 5.75501e-07 0)
(272.543 6.65328e-07 0)
(271.537 7.20381e-07 0)
(269.6 7.46856e-07 0)
(264.59 6.61257e-07 0)
(247.907 6.48072e-07 0)
(186.827 4.64896e-07 0)
(66.1329 1.72639e-07 0)
(14.4531 4.68513e-08 0)
(1.56125 8.48535e-09 0)
(0.153338 8.35511e-10 0)
(0.0159818 9.81432e-11 0)
(0.00167672 9.55639e-12 0)
(0.000176035 1.00607e-11 0)
(1.84745e-05 8.42403e-12 0)
(1.93178e-06 -5.28284e-12 0)
(1.94311e-07 -1.4228e-12 0)
(1.73561e-08 -1.26859e-12 0)
(1.42461e-09 -6.82513e-13 0)
(1.26727e-10 -1.13261e-12 0)
(9.92052e-12 -4.26024e-14 0)
(1.14384e-13 -5.47995e-13 0)
(-3.62996e-13 2.53863e-14 0)
(5.19982e-13 1.84853e-13 0)
(-7.00313e-14 7.90624e-13 0)
(-7.68593e-13 4.15373e-13 0)
(1.20074e-12 6.46768e-13 0)
(3.06095e-13 4.36091e-13 0)
(1.33556e-12 9.31854e-13 0)
(1.42222e-12 6.18464e-13 0)
(1.32184e-13 1.38998e-12 0)
(1.19199e-12 1.52537e-12 0)
(1.11589e-12 1.26646e-12 0)
(9.97414e-13 2.20522e-12 0)
(2.79556e-13 5.2176e-13 0)
(-2.87143e-13 1.83725e-12 0)
(-1.43747e-12 9.01991e-13 0)
(-1.19176e-12 1.36276e-12 0)
(-5.97631e-13 1.54106e-12 0)
(2.88894e-13 1.22123e-12 0)
(-9.02867e-13 1.44797e-12 0)
(-6.88677e-13 1.08846e-12 0)
(1.47248e-12 1.57724e-12 0)
(-3.77605e-13 1.10772e-12 0)
(-5.25846e-13 1.78764e-12 0)
(4.93571e-12 9.67649e-13 0)
(3.03922e-11 2.36222e-12 0)
(2.10814e-10 1.67704e-12 0)
(1.41805e-09 2.13402e-12 0)
(9.40418e-09 1.72549e-12 0)
(6.17666e-08 -9.54197e-12 0)
(3.59319e-07 -1.58387e-11 0)
(1.77392e-06 -8.81273e-12 0)
(8.21167e-06 -2.03183e-11 0)
(3.66022e-05 4.60071e-11 0)
(0.000157688 -4.74031e-11 0)
(0.000656391 -1.95413e-11 0)
(0.00263669 4.57762e-11 0)
(0.0102061 -1.37439e-10 0)
(0.0380107 1.73986e-10 0)
(0.135997 -1.47221e-11 0)
(0.466863 2.17895e-10 0)
(1.53797 1.037e-09 0)
(4.9576 2.00371e-09 0)
(14.6994 5.12849e-09 0)
(25.7597 8.07755e-09 0)
(35.7419 8.14418e-09 0)
(46.8358 1.14228e-08 0)
(59.0626 1.06608e-08 0)
(72.183 1.34364e-08 0)
(85.9552 1.54255e-08 0)
(100.194 1.75579e-08 0)
(114.756 2.21492e-08 0)
(129.533 2.66108e-08 0)
(144.432 2.78288e-08 0)
(159.373 4.47113e-08 0)
(174.276 1.84075e-08 0)
(189.051 6.9425e-08 0)
(203.583 5.30886e-08 0)
(217.675 2.19317e-08 0)
(231.013 -1.05055e-07 0)
(242.991 3.36647e-07 0)
(252.903 -3.04031e-07 0)
(260.062 -2.3593e-08 0)
(264.248 -4.43924e-07 0)
(266.752 5.1403e-07 0)
(268.513 -1.61952e-07 0)
(268.481 -1.64558e-08 0)
(270.538 -1.16396e-07 0)
(270.774 -1.98093e-07 0)
(272.749 -2.97818e-07 0)
(273.167 -1.44173e-07 0)
(274.768 -1.43025e-07 0)
(275.383 -2.69717e-08 0)
(276.333 7.28046e-08 0)
(276.276 1.43283e-07 0)
(276.12 1.4783e-07 0)
(275.598 1.93319e-07 0)
(274.862 2.52889e-07 0)
(274.115 3.39565e-07 0)
(273.375 4.47884e-07 0)
(272.543 8.00874e-07 0)
(271.537 1.07911e-06 0)
(269.6 1.36541e-06 0)
(264.59 1.53034e-06 0)
(247.907 1.66299e-06 0)
(186.827 1.33171e-06 0)
(66.1329 5.43835e-07 0)
(14.4531 1.29966e-07 0)
(1.56125 7.47413e-09 0)
(0.153338 5.58205e-10 0)
(0.0159818 4.17216e-11 0)
(0.00167672 2.55484e-12 0)
(0.000176035 -2.38964e-11 0)
(1.84745e-05 -7.22154e-12 0)
(1.9318e-06 -1.53814e-11 0)
(1.94323e-07 -5.27832e-12 0)
(1.736e-08 -1.41478e-12 0)
(1.42418e-09 -1.5013e-13 0)
(1.28113e-10 -9.46735e-13 0)
(1.18478e-11 -5.10791e-13 0)
(6.80762e-13 -2.75165e-13 0)
(1.49488e-12 7.57213e-14 0)
(1.63844e-12 -2.86253e-13 0)
(-5.26402e-13 -2.25121e-13 0)
(-2.92381e-13 -2.87712e-13 0)
(4.16686e-13 3.42716e-13 0)
(-8.46211e-15 -8.69409e-13 0)
(3.1981e-13 -1.35686e-14 0)
(1.01458e-12 -1.85685e-12 0)
(9.96487e-13 -4.00491e-13 0)
(-8.17032e-14 -1.59132e-12 0)
(3.54844e-13 8.44796e-13 0)
(8.17074e-14 2.96189e-13 0)
(-1.95222e-12 2.12439e-13 0)
(-3.36168e-13 -3.15157e-13 0)
(-1.77889e-12 -5.71952e-14 0)
(4.07953e-13 -3.32666e-13 0)
(5.91211e-13 5.90628e-13 0)
(-6.53659e-13 2.1419e-13 0)
(2.20026e-13 3.0757e-13 0)
(2.46873e-13 4.18459e-13 0)
(2.26388e-12 1.09517e-12 0)
(3.91612e-13 9.41094e-13 0)
(1.63415e-14 1.42959e-12 0)
(4.23419e-12 1.31549e-12 0)
(3.26719e-11 1.15674e-12 0)
(2.1243e-10 2.43663e-12 0)
(1.41522e-09 1.47015e-12 0)
(9.40409e-09 1.61606e-12 0)
(6.1758e-08 9.31756e-13 0)
(3.59291e-07 -5.29172e-12 0)
(1.77396e-06 2.01088e-12 0)
(8.21167e-06 2.74683e-12 0)
(3.66022e-05 -2.98144e-12 0)
(0.000157689 2.61805e-11 0)
(0.000656391 -7.62575e-11 0)
(0.00263669 1.36576e-10 0)
(0.0102061 -1.04324e-10 0)
(0.0380107 5.06976e-11 0)
(0.135997 7.91007e-11 0)
(0.466863 2.54935e-11 0)
(1.53797 2.76466e-10 0)
(4.9576 2.32224e-10 0)
(14.6994 2.23033e-09 0)
(25.7597 3.15097e-09 0)
(35.7419 4.22831e-09 0)
(46.8358 4.65797e-09 0)
(59.0626 4.5081e-09 0)
(72.183 6.1105e-09 0)
(85.9552 6.10558e-09 0)
(100.194 1.03077e-08 0)
(114.756 1.05961e-08 0)
(129.533 1.67087e-08 0)
(144.432 1.64278e-08 0)
(159.373 4.01704e-08 0)
(174.276 3.18691e-09 0)
(189.051 7.64375e-08 0)
(203.583 1.49504e-08 0)
(217.675 8.25285e-08 0)
(231.013 -5.9116e-08 0)
(242.991 2.36832e-07 0)
(252.903 -3.53446e-08 0)
(260.062 3.19374e-08 0)
(264.248 7.41347e-09 0)
(266.752 2.06907e-07 0)
(268.513 1.06595e-07 0)
(268.481 9.23314e-08 0)
(270.538 8.11125e-08 0)
(270.774 -1.3567e-08 0)
(272.749 -5.30564e-08 0)
(273.167 -8.07857e-08 0)
(274.768 -9.7907e-08 0)
(275.383 -1.01041e-07 0)
(276.333 -8.62834e-08 0)
(276.276 -8.51578e-08 0)
(276.12 -7.36154e-08 0)
(275.598 -3.65926e-08 0)
(274.862 8.62676e-08 0)
(274.115 2.21604e-07 0)
(273.375 3.47233e-07 0)
(272.543 5.21867e-07 0)
(271.537 6.98966e-07 0)
(269.6 8.44648e-07 0)
(264.59 9.68349e-07 0)
(247.907 1.01526e-06 0)
(186.827 6.67187e-07 0)
(66.1329 1.44396e-07 0)
(14.4531 3.51801e-08 0)
(1.56125 9.4099e-10 0)
(0.153338 5.20919e-11 0)
(0.0159818 5.64148e-12 0)
(0.00167672 2.53207e-12 0)
(0.000176035 -2.00435e-12 0)
(1.84745e-05 1.26348e-13 0)
(1.9318e-06 -1.56418e-12 0)
(1.94329e-07 -1.33205e-13 0)
(1.73605e-08 5.19399e-14 0)
(1.42493e-09 4.53744e-14 0)
(1.25679e-10 -1.05193e-13 0)
(1.16541e-11 -6.87766e-13 0)
(9.76645e-13 -4.38863e-13 0)
(-5.46244e-13 -7.74867e-13 0)
(-3.37317e-13 -1.30521e-12 0)
(-2.30228e-13 -1.83263e-12 0)
(7.35037e-13 -1.29762e-12 0)
(-4.69793e-14 -1.37232e-12 0)
(-2.08343e-13 -1.34373e-12 0)
(1.6895e-13 -1.55615e-12 0)
(9.64097e-13 -1.1987e-12 0)
(9.50383e-13 -1.4584e-12 0)
(-4.20771e-13 -1.30827e-12 0)
)
;

boundaryField
{
    sides1
    {
        type            zeroGradient;
    }
    sides2
    {
        type            zeroGradient;
    }
    empty
    {
        type            empty;
    }
}


// ************************************************************************* //
