/*--------------------------------*- C++ -*----------------------------------*\
| =========                 |                                                 |
| \\      /  F ield         | OpenFOAM: The Open Source CFD Toolbox           |
|  \\    /   O peration     | Version:  3.0.0                                 |
|   \\  /    A nd           | Web:      www.OpenFOAM.org                      |
|    \\/     M anipulation  |                                                 |
\*---------------------------------------------------------------------------*/
FoamFile
{
    version     2.0;
    format      ascii;
    class       surfaceScalarField;
    location    "5e-05";
    object      phi;
}
// * * * * * * * * * * * * * * * * * * * * * * * * * * * * * * * * * * * * * //

dimensions      [1 0 -1 0 0 0 0];

internalField   nonuniform List<scalar> 
1890
(
-1.04083e-17
-2.77556e-17
-3.81639e-17
-8.67362e-18
-1.04083e-17
-3.46945e-18
-2.08167e-17
1.38778e-17
-2.42861e-17
-1.73472e-18
-3.1225e-17
1.73472e-17
-3.81639e-17
0
2.08167e-17
6.93889e-18
5.20417e-17
1.73472e-17
1.45717e-16
-8.67362e-18
9.02056e-17
-3.46945e-17
6.59195e-17
-3.46945e-17
-2.77556e-17
-9.02056e-17
1.73472e-17
-6.245e-17
1.73472e-17
-8.50015e-17
2.08167e-17
-8.84709e-17
-4.51028e-17
-7.97973e-17
-3.1225e-17
-6.59195e-17
-3.46945e-18
-6.59195e-17
0
-7.45931e-17
-3.46945e-18
-5.55112e-17
-1.04083e-17
-8.67362e-17
-1.04083e-16
-5.72459e-17
-8.67362e-17
-2.25514e-17
1.38778e-17
0
-1.38778e-16
-4.51028e-17
-2.77556e-17
1.56125e-17
2.39392e-16
3.46945e-18
2.42861e-15
-1.38778e-17
2.63296e-14
2.08167e-17
2.74079e-13
5.20417e-18
2.65386e-12
1.73472e-17
2.31095e-11
1.73472e-17
1.79841e-10
-1.73472e-18
1.2957e-09
-5.37764e-17
8.77428e-09
1.52656e-16
5.57981e-08
8.84709e-17
3.31987e-07
1.56646e-15
1.8397e-06
5.05498e-15
9.4451e-06
2.63366e-14
4.46416e-05
1.05617e-13
0.000192164
3.50522e-13
0.000714094
5.76501e-13
0.0021302
1.17458e-12
0.00411856
3.65635e-13
0.00620026
-2.12613e-12
0.00812412
-2.69306e-12
0.00956802
-7.22475e-13
0.0104626
-3.40688e-12
0.0108937
5.26491e-12
0.0107821
-9.26422e-12
0.0105693
-7.79341e-13
0.0100329
1.32949e-12
0.00942993
-1.77374e-12
0.00878708
-4.00473e-12
0.00803524
1.94538e-12
0.0070076
5.81162e-12
0.00390153
8.23078e-12
0.000936073
-3.70738e-12
0.000190263
-8.23018e-14
2.75236e-05
-2.21386e-13
3.05317e-06
-7.66297e-14
3.20564e-07
-7.00828e-15
3.3317e-08
-5.32343e-16
3.41324e-09
2.1684e-18
3.43483e-10
-5.85469e-18
3.37739e-11
4.77049e-18
3.18989e-12
1.30104e-18
2.7736e-13
-4.33681e-19
2.19484e-14
-3.46945e-18
1.68116e-15
-1.30104e-18
1.19045e-16
-2.81893e-18
2.1684e-19
-1.30104e-18
-4.33681e-18
1.95156e-18
-5.63785e-18
0
-6.28837e-18
1.51788e-18
7.37257e-18
6.50521e-19
3.03577e-18
4.33681e-19
2.81893e-18
2.1684e-19
3.46945e-18
-2.1684e-19
-2.38524e-18
8.67362e-19
4.77049e-18
8.67362e-19
4.98733e-18
-2.1684e-18
-2.1684e-19
-2.38524e-18
-2.60209e-18
-1.51788e-18
-4.33681e-18
-3.25261e-18
1.73472e-18
-4.33681e-19
-1.51788e-18
-1.0842e-18
1.30104e-18
8.67362e-19
-4.98733e-18
-1.73472e-18
-3.68629e-18
-6.50521e-19
-1.30104e-18
2.1684e-18
-2.60209e-18
2.1684e-19
1.51788e-18
3.46945e-18
1.0842e-18
3.90313e-18
2.1684e-18
5.20417e-18
2.1684e-19
4.77049e-18
1.30104e-18
7.58942e-18
-5.20417e-18
6.50521e-18
8.0231e-18
1.14492e-16
-1.73472e-18
5.20417e-17
-2.42861e-17
7.28584e-17
-2.60209e-17
-2.77556e-17
-5.72459e-17
-3.1225e-17
-3.1225e-17
-6.59195e-17
-5.55112e-17
-4.51028e-17
-3.98986e-17
4.85723e-17
-1.56125e-17
-7.97973e-17
-4.33681e-17
2.77556e-17
-1.73472e-18
-2.08167e-17
-3.81639e-17
-7.28584e-17
-3.46945e-17
-6.93889e-18
-3.1225e-17
-2.08167e-17
-1.56125e-17
-4.16334e-17
-2.94903e-17
-3.46945e-18
-5.20417e-18
4.85723e-17
-2.08167e-17
2.42861e-17
-5.37764e-17
2.08167e-17
-4.51028e-17
-6.245e-17
-3.1225e-17
-9.02056e-17
-1.9082e-17
6.245e-17
1.73472e-18
1.14492e-16
-2.77556e-17
3.46945e-18
-4.51028e-17
-1.00614e-16
-1.04083e-17
-3.46945e-18
-1.38778e-17
1.07553e-16
1.04083e-17
3.01842e-16
-1.04083e-17
2.47025e-15
1.21431e-17
2.62949e-14
-6.07153e-17
2.74038e-13
6.93889e-18
2.65386e-12
3.46945e-18
2.31095e-11
-1.21431e-17
1.79841e-10
-8.67362e-18
1.2957e-09
1.56125e-17
8.77428e-09
1.73472e-17
5.57981e-08
-2.06432e-16
3.31987e-07
-4.35416e-16
1.8397e-06
-1.17788e-15
9.4451e-06
-6.01429e-15
4.46416e-05
-2.36269e-14
0.000192164
-7.63903e-14
0.000714094
-1.01972e-13
0.0021302
-5.28945e-13
0.00411856
-8.31887e-14
0.00620026
4.24345e-13
0.00812412
6.38273e-13
0.00956802
-1.14351e-13
0.0104626
-8.84254e-13
0.0108937
-2.31338e-12
0.0107821
-7.6919e-12
0.0105693
-7.18717e-12
0.0100329
-6.54759e-12
0.00942993
-2.27973e-12
0.00878708
3.0453e-12
0.00803524
4.66888e-14
0.0070076
-2.14369e-12
0.00390153
8.95369e-14
0.000936073
5.47946e-12
0.000190263
-2.66416e-13
2.75236e-05
7.49004e-14
3.05317e-06
1.40519e-14
3.20564e-07
5.81132e-16
3.3317e-08
7.48099e-17
3.41324e-09
2.97071e-17
3.43483e-10
-4.33681e-18
3.37739e-11
8.0231e-18
3.18988e-12
3.46945e-18
2.7736e-13
-5.20417e-18
2.19425e-14
-6.50521e-19
1.66902e-15
-3.46945e-18
1.23599e-16
-2.60209e-18
4.98733e-18
-5.85469e-18
-1.95156e-18
-1.73472e-18
2.38524e-18
-2.81893e-18
-8.67362e-18
-6.50521e-19
-4.55365e-18
2.38524e-18
-4.33681e-18
4.33681e-19
5.20417e-18
0
8.67362e-18
8.67362e-19
-5.20417e-18
1.51788e-18
-1.0842e-18
2.38524e-18
2.81893e-18
2.38524e-18
1.73472e-18
6.50521e-19
-6.93889e-18
-1.73472e-18
-3.03577e-18
-8.67362e-19
4.33681e-18
0
2.81893e-18
-1.51788e-18
-1.73472e-18
-6.50521e-19
-1.73472e-18
-2.1684e-19
4.11997e-18
-1.0842e-18
2.1684e-18
-1.51788e-18
1.14925e-17
-4.11997e-18
1.0842e-17
-4.55365e-18
3.03577e-18
-3.46945e-18
-1.51788e-18
-4.11997e-18
0
-4.11997e-18
1.30104e-18
2.1684e-18
-1.73472e-18
-2.60209e-18
3.03577e-18
-1.73472e-17
-1.04083e-17
4.51028e-17
5.20417e-18
3.46945e-18
-4.85723e-17
3.46945e-18
-6.93889e-18
-1.35308e-16
-6.59195e-17
-2.77556e-17
-1.04083e-17
1.04083e-17
-3.46945e-17
3.81639e-17
-1.21431e-17
3.46945e-17
-1.21431e-17
-2.08167e-17
8.67362e-18
2.08167e-17
1.9082e-17
1.04083e-17
-5.20417e-18
3.81639e-17
1.56125e-17
-1.04083e-17
-1.73472e-18
-2.08167e-17
1.38778e-17
-4.16334e-17
3.46945e-18
-6.59195e-17
1.04083e-17
6.93889e-18
5.0307e-17
5.20417e-17
2.42861e-17
2.42861e-17
2.08167e-17
-1.73472e-17
-8.67362e-18
4.85723e-17
6.93889e-18
-3.46945e-18
-1.38778e-17
5.89806e-17
-5.20417e-18
1.38778e-17
-6.93889e-18
1.04083e-17
-5.20417e-18
3.1225e-17
8.67362e-18
2.60209e-16
2.77556e-17
2.39739e-15
-8.67362e-18
2.63331e-14
-8.67362e-18
2.74076e-13
2.08167e-17
2.65383e-12
-8.67362e-18
2.31095e-11
-2.60209e-17
1.79841e-10
-9.02056e-17
1.2957e-09
-1.26635e-16
8.77428e-09
-1.5439e-16
5.57981e-08
-2.42861e-17
3.31987e-07
-8.96852e-16
1.8397e-06
-2.84842e-15
9.4451e-06
-9.78904e-15
4.46416e-05
-3.70901e-14
0.000192164
-1.18934e-13
0.000714094
-4.15598e-13
0.0021302
-7.03989e-13
0.00411856
-5.56761e-13
0.00620026
2.89495e-13
0.00812412
4.69111e-13
0.00956802
-1.34149e-12
0.0104626
-1.53993e-12
0.0108937
-4.48377e-12
0.0107821
6.52644e-13
0.0105693
-3.5901e-12
0.0100329
-2.79972e-12
0.00942993
-8.69188e-13
0.00878708
-6.47807e-13
0.00803524
5.06005e-13
0.0070076
-1.46343e-13
0.00390153
-7.04491e-12
0.000936073
1.73137e-12
0.000190263
1.74169e-12
2.75236e-05
-2.62338e-14
3.05317e-06
6.87601e-15
3.20564e-07
2.03396e-15
3.3317e-08
1.04517e-16
3.41324e-09
-1.32273e-17
3.43483e-10
-4.77049e-18
3.37739e-11
-9.54098e-18
3.18987e-12
-7.37257e-18
2.77354e-13
-2.81893e-18
2.19419e-14
8.67362e-19
1.67618e-15
-1.51788e-18
1.25334e-16
6.50521e-19
8.89046e-18
4.33681e-19
-2.60209e-18
2.81893e-18
3.03577e-18
5.63785e-18
4.33681e-19
6.07153e-18
4.11997e-18
4.77049e-18
4.55365e-18
2.60209e-18
2.60209e-18
-2.1684e-19
1.38778e-17
4.55365e-18
2.38524e-18
-2.60209e-18
-1.0842e-18
3.90313e-18
-7.15573e-18
2.60209e-18
-1.04083e-17
8.67362e-19
6.50521e-19
2.60209e-18
2.1684e-19
2.60209e-18
2.38524e-18
2.60209e-18
3.25261e-18
4.33681e-19
-4.11997e-18
-6.50521e-19
-3.25261e-18
3.03577e-18
-7.37257e-18
-2.1684e-19
-9.75782e-18
3.03577e-18
4.11997e-18
1.0842e-18
8.67362e-18
4.33681e-19
1.73472e-18
0
1.30104e-18
2.1684e-19
1.45283e-17
4.33681e-19
5.85469e-18
-2.38524e-18
1.25767e-17
-3.25261e-18
-3.46945e-18
-6.59195e-17
-8.67362e-18
-8.67362e-17
0
-2.42861e-17
-3.64292e-17
-4.16334e-17
1.21431e-17
-2.42861e-17
-1.73472e-17
0
6.93889e-18
3.46945e-17
1.04083e-17
7.97973e-17
-2.77556e-17
7.63278e-17
1.04083e-17
-3.81639e-17
-2.77556e-17
-4.16334e-17
5.20417e-18
-2.42861e-17
-1.56125e-17
-3.1225e-17
1.38778e-17
7.28584e-17
-5.20417e-18
4.16334e-17
-3.1225e-17
-7.63278e-17
-1.21431e-17
-6.59195e-17
-1.04083e-17
-1.73472e-17
5.20417e-18
3.81639e-17
6.93889e-18
6.93889e-18
3.46945e-18
3.46945e-18
3.46945e-18
-2.77556e-17
-1.73472e-17
2.08167e-17
2.60209e-17
2.77556e-17
-2.08167e-17
-6.93889e-18
-1.73472e-17
3.81639e-17
-1.04083e-17
6.93889e-17
8.67362e-18
1.38778e-16
-1.04083e-17
2.38004e-15
1.56125e-17
2.64372e-14
2.42861e-17
2.741e-13
6.93889e-18
2.65373e-12
-1.04083e-17
2.31094e-11
2.25514e-17
1.79841e-10
-7.80626e-17
1.2957e-09
-3.1225e-17
8.77428e-09
-7.45931e-17
5.57981e-08
9.88792e-17
3.31987e-07
8.1532e-17
1.8397e-06
1.47625e-15
9.4451e-06
5.83388e-15
4.46416e-05
2.30579e-14
0.000192164
8.20281e-14
0.000714094
2.7859e-13
0.0021302
9.1582e-13
0.00411856
1.39495e-13
0.00620026
-5.20818e-13
0.00812412
-1.23583e-12
0.00956802
-1.09092e-12
0.0104626
-2.02984e-12
0.0108937
5.72316e-13
0.0107821
1.74319e-12
0.0105693
3.81979e-12
0.0100329
1.48763e-12
0.00942993
1.90744e-12
0.00878708
4.84092e-12
0.00803524
7.09562e-12
0.0070076
8.66192e-12
0.00390153
1.68034e-11
0.000936073
-1.40321e-12
0.000190263
-2.0519e-13
2.75236e-05
-1.79942e-13
3.05317e-06
-6.25183e-14
3.20564e-07
-8.63394e-15
3.3317e-08
-7.81276e-16
3.41324e-09
-6.57027e-17
3.43483e-10
-1.40946e-17
3.37739e-11
-5.42101e-18
3.18989e-12
-5.63785e-18
2.77364e-13
2.81893e-18
2.19388e-14
-6.50521e-19
1.67401e-15
1.73472e-18
1.30755e-16
8.67362e-19
2.25514e-17
3.46945e-18
7.37257e-18
3.46945e-18
4.11997e-18
6.07153e-18
6.50521e-19
3.03577e-18
-1.12757e-17
2.1684e-18
-9.1073e-18
8.67362e-19
8.67362e-18
1.73472e-18
2.1684e-18
1.30104e-18
1.04083e-17
3.03577e-18
1.30104e-18
2.60209e-18
-7.80626e-18
3.46945e-18
1.73472e-18
6.72205e-18
-2.1684e-18
5.20417e-18
-1.19262e-17
5.85469e-18
-2.38524e-18
8.45678e-18
2.38524e-18
7.58942e-18
1.73472e-18
6.50521e-18
-4.55365e-18
2.81893e-18
3.46945e-18
4.98733e-18
-3.46945e-18
2.60209e-18
2.1684e-18
1.73472e-18
6.72205e-18
1.30104e-18
7.80626e-18
1.0842e-18
4.11997e-18
-1.95156e-18
-2.81893e-18
-2.1684e-18
-8.89046e-18
-2.81893e-18
4.11997e-18
1.30104e-18
-2.38524e-18
1.73472e-17
2.08167e-17
-5.55112e-17
1.9082e-17
1.73472e-17
3.81639e-17
-3.1225e-17
2.60209e-17
-6.93889e-18
-8.67362e-18
-4.51028e-17
-1.21431e-17
-6.59195e-17
-1.73472e-17
9.36751e-17
-6.93889e-18
5.55112e-17
-3.46945e-17
3.1225e-17
-4.16334e-17
-3.46945e-18
3.46945e-18
5.89806e-17
-5.20417e-18
6.93889e-18
-1.21431e-17
-5.89806e-17
-2.60209e-17
2.08167e-17
-3.46945e-18
-3.46945e-18
0
2.77556e-17
-3.46945e-18
-1.38778e-17
2.60209e-17
6.93889e-18
1.21431e-17
-1.73472e-17
-6.93889e-18
-6.245e-17
-3.46945e-18
4.16334e-17
1.38778e-17
-7.97973e-17
-1.04083e-17
-2.08167e-17
5.20417e-18
5.89806e-17
1.56125e-17
6.245e-17
-1.21431e-17
5.55112e-17
-1.21431e-17
2.74086e-16
6.93889e-18
2.42167e-15
0
2.63019e-14
-1.56125e-17
2.74076e-13
-1.9082e-17
2.65379e-12
3.46945e-18
2.31092e-11
2.94903e-17
1.79841e-10
-4.85723e-17
1.2957e-09
-1.38778e-17
8.77428e-09
8.50015e-17
5.57981e-08
1.26635e-16
3.31987e-07
1.17267e-15
1.8397e-06
5.45917e-15
9.4451e-06
2.65742e-14
4.46416e-05
1.09465e-13
0.000192164
3.83176e-13
0.000714094
8.21494e-13
0.0021302
2.03778e-12
0.00411856
1.18161e-12
0.00620026
-1.81196e-12
0.00812412
-2.50823e-12
0.00956802
-7.28452e-13
0.0104626
-1.25814e-12
0.0108937
2.75363e-12
0.0107821
-2.20476e-12
0.0105693
1.12003e-12
0.0100329
-2.05716e-12
0.00942993
1.72047e-12
0.00878708
-8.78863e-13
0.00803524
-3.31328e-12
0.0070076
-3.47563e-12
0.00390153
-2.3882e-12
0.000936073
-1.75422e-12
0.000190263
-1.21039e-13
2.75236e-05
-9.70478e-14
3.05317e-06
5.24992e-15
3.20564e-07
3.02492e-16
3.3317e-08
6.13658e-17
3.41324e-09
9.1073e-18
3.43483e-10
0
3.3774e-11
9.97466e-18
3.1899e-12
8.67362e-19
2.77359e-13
6.28837e-18
2.19369e-14
1.95156e-18
1.68138e-15
3.90313e-18
1.33791e-16
3.68629e-18
1.56125e-17
1.30104e-18
7.80626e-18
2.38524e-18
-5.20417e-18
4.33681e-19
-6.07153e-18
2.1684e-18
-1.53957e-17
8.67362e-19
-9.54098e-18
1.51788e-18
1.06252e-17
4.55365e-18
8.23994e-18
2.1684e-18
6.50521e-18
2.81893e-18
5.42101e-18
4.33681e-19
-2.81893e-18
-2.1684e-19
-5.20417e-18
4.11997e-18
7.37257e-18
2.38524e-18
1.0842e-18
4.33681e-19
-1.0842e-18
1.0842e-18
-8.89046e-18
1.95156e-18
-5.20417e-18
4.33681e-18
-2.1684e-18
4.77049e-18
-8.0231e-18
2.1684e-18
-1.27936e-17
8.67362e-19
-8.67362e-19
3.03577e-18
9.32414e-18
2.60209e-18
-6.72205e-18
8.67362e-19
-4.55365e-18
4.33681e-19
-2.1684e-19
-1.0842e-18
1.30104e-18
1.0842e-18
-4.33681e-19
4.98733e-18
4.98733e-18
-7.28584e-17
3.46945e-18
-8.32667e-17
-1.9082e-17
-6.93889e-18
2.08167e-17
-1.11022e-16
-3.29597e-17
-3.1225e-17
1.21431e-17
-2.77556e-17
-4.16334e-17
-2.08167e-17
5.20417e-18
2.77556e-17
1.04083e-17
4.85723e-17
1.73472e-18
8.32667e-17
8.67362e-18
-3.46945e-18
-5.20417e-18
-3.46945e-18
-1.73472e-18
-2.77556e-17
5.20417e-18
2.77556e-17
1.38778e-17
4.85723e-17
1.73472e-18
-1.04083e-17
1.21431e-17
6.93889e-17
-2.77556e-17
-6.59195e-17
-2.60209e-17
-3.1225e-17
0
-2.08167e-17
-1.56125e-17
3.1225e-17
1.73472e-18
2.77556e-17
-6.93889e-18
-3.81639e-17
-1.73472e-18
6.93889e-18
0
-3.81639e-17
-1.9082e-17
7.28584e-17
2.94903e-17
7.97973e-17
-2.25514e-17
2.35922e-16
-1.21431e-17
2.40433e-15
-2.42861e-17
2.63609e-14
-3.46945e-18
2.74086e-13
5.20417e-18
2.65378e-12
1.56125e-17
2.31092e-11
-3.64292e-17
1.79841e-10
8.67362e-18
1.2957e-09
1.56125e-17
8.77428e-09
2.42861e-17
5.57981e-08
-2.37657e-16
3.31987e-07
7.11237e-17
1.8397e-06
-1.66187e-15
9.4451e-06
-7.06032e-15
4.46416e-05
-2.89699e-14
0.000192164
-9.77603e-14
0.000714094
-1.75646e-13
0.0021302
-7.7386e-13
0.00411856
-9.51905e-13
0.00620026
1.61857e-13
0.00812412
1.01087e-13
0.00956802
4.57736e-13
0.0104626
-1.88462e-12
0.0108937
2.03916e-13
0.0107821
-1.68287e-12
0.0105693
-2.20932e-12
0.0100329
-1.7464e-12
0.00942993
-3.32152e-12
0.00878708
-1.69279e-12
0.00803524
-3.56366e-12
0.0070076
-5.44828e-12
0.00390153
-1.06677e-11
0.000936073
-2.64167e-12
0.000190263
-5.12551e-13
2.75236e-05
1.38162e-14
3.05317e-06
1.34068e-14
3.20564e-07
2.42991e-15
3.3317e-08
2.41343e-16
3.41324e-09
4.68375e-17
3.43483e-10
1.17094e-17
3.3774e-11
7.37257e-18
3.1899e-12
6.72205e-18
2.7735e-13
-3.68629e-18
2.19421e-14
3.46945e-18
1.68008e-15
0
1.34875e-16
2.38524e-18
2.08167e-17
1.95156e-18
-4.33681e-19
2.60209e-18
-2.1684e-18
-2.60209e-18
-7.37257e-18
-1.73472e-18
-6.72205e-18
-1.51788e-18
-6.50521e-19
0
8.45678e-18
-8.67362e-19
9.54098e-18
-1.95156e-18
2.60209e-18
-1.51788e-18
3.46945e-18
-2.1684e-18
3.90313e-18
-2.1684e-18
1.73472e-18
-3.25261e-18
-2.1684e-18
-4.77049e-18
-2.1684e-18
-2.81893e-18
2.81893e-18
-5.42101e-18
4.33681e-19
-4.11997e-18
-2.38524e-18
-4.33681e-18
-1.25767e-17
-2.38524e-18
-5.85469e-18
-1.95156e-18
-7.37257e-18
-1.95156e-18
-5.20417e-18
4.33681e-19
2.1684e-19
-2.38524e-18
-5.63785e-18
0
-3.03577e-18
2.81893e-18
8.0231e-18
4.33681e-19
8.67362e-18
2.1684e-18
4.11997e-18
0
6.50521e-19
-1.73472e-17
-2.94903e-17
-3.81639e-17
-1.9082e-17
-6.93889e-17
2.94903e-17
-1.11022e-16
-1.73472e-18
-3.81639e-17
7.63278e-17
-1.38778e-17
2.94903e-17
-3.46945e-18
3.81639e-17
3.46945e-17
4.51028e-17
5.89806e-17
2.25514e-17
6.93889e-17
2.77556e-17
6.93889e-18
-1.21431e-17
3.81639e-17
2.42861e-17
-6.93889e-18
-2.42861e-17
1.04083e-17
8.67362e-18
6.245e-17
3.46945e-18
-6.59195e-17
-1.38778e-17
1.04083e-17
-5.20417e-18
-5.89806e-17
-2.42861e-17
-4.16334e-17
5.20417e-18
1.04083e-17
-1.21431e-17
-2.77556e-17
3.1225e-17
-3.46945e-17
-6.93889e-18
-2.77556e-17
1.73472e-18
6.59195e-17
2.08167e-17
6.93889e-17
1.73472e-17
2.08167e-17
8.67362e-18
4.16334e-17
-1.56125e-17
2.15106e-16
-6.93889e-18
2.40433e-15
-2.25514e-17
2.64372e-14
-1.9082e-17
2.74107e-13
-6.93889e-18
2.65378e-12
-3.1225e-17
2.31091e-11
2.42861e-17
1.79841e-10
6.07153e-17
1.2957e-09
7.63278e-17
8.77428e-09
5.55112e-17
5.57981e-08
-2.25514e-16
3.31987e-07
-4.21538e-16
1.8397e-06
-3.26822e-15
9.4451e-06
-1.24397e-14
4.46416e-05
-4.45182e-14
0.000192164
-1.51022e-13
0.000714094
-5.1111e-13
0.0021302
-1.10606e-12
0.00411856
-1.34594e-12
0.00620026
-1.32682e-13
0.00812412
5.69805e-13
0.00956802
-3.44243e-13
0.0104626
5.56751e-14
0.0108937
-1.5722e-12
0.0107821
1.89712e-12
0.0105693
6.8315e-12
0.0100329
2.83582e-13
0.00942993
4.1208e-12
0.00878708
4.80732e-12
0.00803524
5.89495e-12
0.0070076
5.16063e-12
0.00390153
8.30147e-12
0.000936073
-1.62876e-12
0.000190263
-1.09504e-13
2.75236e-05
-7.55253e-14
3.05317e-06
-3.99156e-14
3.20564e-07
-5.55936e-15
3.3317e-08
-5.38198e-16
3.41324e-09
-1.12757e-17
3.43483e-10
6.93889e-18
3.3774e-11
1.25767e-17
3.18989e-12
-6.50521e-19
2.77362e-13
3.25261e-18
2.19432e-14
-1.73472e-18
1.67834e-15
0
1.29671e-16
-2.38524e-18
1.66967e-17
-3.90313e-18
-1.73472e-18
-8.45678e-18
-2.60209e-18
-7.37257e-18
-3.46945e-18
-6.72205e-18
-6.50521e-18
-7.80626e-18
-1.0842e-18
-2.60209e-18
1.30104e-18
-3.46945e-18
8.45678e-18
-4.77049e-18
5.20417e-18
-5.20417e-18
2.1684e-19
-9.1073e-18
-5.85469e-18
-6.07153e-18
-1.21431e-17
-8.67362e-18
4.77049e-18
-5.42101e-18
0
-6.50521e-18
4.55365e-18
-5.20417e-18
-6.50521e-19
-5.42101e-18
-4.33681e-19
-6.28837e-18
-3.90313e-18
-5.20417e-18
-2.1684e-19
-3.46945e-18
-1.01915e-17
-4.77049e-18
-4.55365e-18
-2.60209e-18
1.10589e-17
1.30104e-18
-2.1684e-18
0
-6.72205e-18
3.03577e-18
6.72205e-18
3.25261e-18
3.25261e-18
2.1684e-18
4.33681e-19
6.50521e-19
3.46945e-18
-4.51028e-17
-3.1225e-17
2.42861e-17
2.94903e-17
6.93889e-18
1.56125e-17
1.73472e-17
4.33681e-17
-6.93889e-17
4.51028e-17
3.81639e-17
6.245e-17
4.85723e-17
3.81639e-17
3.46945e-17
3.98986e-17
0
1.56125e-17
-3.1225e-17
1.73472e-18
3.46945e-18
-3.46945e-18
-3.46945e-17
-1.73472e-18
1.04083e-17
1.04083e-17
-1.73472e-17
3.46945e-18
-2.42861e-17
3.1225e-17
-6.245e-17
1.04083e-17
-1.38778e-17
4.85723e-17
2.42861e-17
3.29597e-17
1.38778e-17
3.1225e-17
1.38778e-17
4.16334e-17
-1.38778e-17
1.9082e-17
5.20417e-17
2.25514e-17
2.42861e-17
2.94903e-17
-6.93889e-18
1.21431e-17
-4.85723e-17
8.67362e-18
-7.63278e-17
1.56125e-17
1.04083e-17
1.73472e-18
2.91434e-16
2.42861e-17
2.4182e-15
3.46945e-18
2.63331e-14
2.60209e-17
2.74104e-13
-4.51028e-17
2.65384e-12
1.04083e-17
2.31094e-11
-3.46945e-18
1.79841e-10
3.98986e-17
1.2957e-09
1.38778e-17
8.77428e-09
1.56125e-16
5.57981e-08
-1.26635e-16
3.31987e-07
4.04191e-16
1.8397e-06
1.25074e-15
9.4451e-06
5.17295e-15
4.46416e-05
2.35471e-14
0.000192164
8.66043e-14
0.000714094
3.05173e-13
0.0021302
6.80992e-13
0.00411856
-4.01083e-13
0.00620026
4.02085e-13
0.00812412
-4.74727e-13
0.00956802
1.59182e-12
0.0104626
1.03887e-12
0.0108937
6.61876e-12
0.0107821
5.1277e-13
0.0105693
3.59924e-12
0.0100329
1.10581e-12
0.00942993
-1.66016e-12
0.00878708
3.10892e-13
0.00803524
6.14446e-13
0.0070076
2.6809e-12
0.00390153
2.20892e-12
0.000936073
1.60726e-12
0.000190263
7.7537e-13
2.75236e-05
4.91944e-14
3.05317e-06
-3.10147e-15
3.20564e-07
6.91938e-16
3.3317e-08
-2.21177e-17
3.41324e-09
8.67362e-18
3.43483e-10
-6.50521e-19
3.37739e-11
-1.73472e-18
3.18988e-12
-2.38524e-18
2.77351e-13
4.98733e-18
2.1946e-14
-2.1684e-18
1.67379e-15
-8.67362e-19
1.1666e-16
-3.03577e-18
6.50521e-18
-6.50521e-19
1.0842e-18
4.33681e-19
2.1684e-19
-2.1684e-19
0
6.50521e-19
2.38524e-18
-2.1684e-19
4.33681e-19
8.67362e-19
-3.90313e-18
-1.0842e-18
-4.33681e-19
0
-1.73472e-18
-1.0842e-18
5.85469e-18
-1.0842e-18
3.68629e-18
-2.81893e-18
-2.1684e-18
-1.0842e-18
-2.60209e-18
-2.1684e-19
-3.03577e-18
4.33681e-19
3.03577e-18
6.50521e-19
-1.30104e-18
-6.50521e-19
2.81893e-18
8.67362e-19
-2.1684e-19
0
-4.33681e-19
1.95156e-18
2.1684e-19
1.73472e-18
4.33681e-19
3.46945e-18
7.80626e-18
3.68629e-18
1.43115e-17
3.46945e-18
2.1684e-18
-1.0842e-18
6.50521e-18
1.30104e-18
0
-3.46945e-18
9.54098e-18
0
-5.63785e-18
2.25514e-16
6.76542e-17
1.17961e-16
4.16334e-17
5.55112e-17
5.20417e-18
1.73472e-17
3.46945e-18
-1.04083e-17
-5.20417e-18
-5.89806e-17
-6.93889e-18
6.93889e-18
3.46945e-17
-5.20417e-17
-6.93889e-18
-9.71445e-17
-2.60209e-17
-3.81639e-17
-5.20417e-18
2.08167e-17
5.20417e-17
-7.28584e-17
6.07153e-17
5.20417e-17
7.63278e-17
5.55112e-17
6.59195e-17
-3.46945e-18
6.59195e-17
-4.16334e-17
8.84709e-17
1.04083e-17
7.28584e-17
5.20417e-17
1.05818e-16
1.73472e-17
8.84709e-17
-3.46945e-17
9.88792e-17
6.93889e-18
7.28584e-17
2.08167e-17
7.28584e-17
9.71445e-17
7.11237e-17
2.77556e-17
2.77556e-17
-1.00614e-16
1.73472e-18
-1.73472e-17
5.72459e-17
1.42247e-16
3.46945e-17
2.08167e-16
-6.93889e-18
2.45637e-15
-8.67362e-18
2.63088e-14
-3.64292e-17
2.74142e-13
-2.77556e-17
2.6539e-12
-1.73472e-17
2.31093e-11
-2.60209e-17
1.79841e-10
3.46945e-18
1.2957e-09
-7.28584e-17
8.77428e-09
2.89699e-16
5.57981e-08
3.76435e-16
3.31987e-07
4.96131e-16
1.8397e-06
8.48453e-15
9.4451e-06
3.63286e-14
4.46416e-05
1.5846e-13
0.000192164
5.76006e-13
0.000714094
1.44729e-12
0.0021302
3.80998e-12
0.00411856
3.70835e-12
0.00620026
1.57003e-12
0.00812412
5.03324e-13
0.00956802
2.67204e-12
0.0104626
2.80194e-12
0.0108937
6.5077e-12
0.0107821
-5.87114e-12
0.0105693
2.24276e-12
0.0100329
-1.63976e-12
0.00942993
1.48516e-12
0.00878708
2.64858e-12
0.00803524
3.76249e-12
0.0070076
7.39778e-12
0.00390153
2.12329e-11
0.000936073
9.72424e-13
0.000190263
6.90778e-13
2.75236e-05
-1.39452e-14
3.05317e-06
-4.1549e-14
3.20564e-07
-7.06293e-15
3.3317e-08
-7.23597e-16
3.41324e-09
-6.07153e-17
3.43483e-10
-1.25767e-17
3.37739e-11
-2.38524e-18
3.18989e-12
-2.38524e-18
2.77353e-13
-4.33681e-19
2.19362e-14
2.81893e-18
1.67141e-15
1.0842e-18
1.32056e-16
1.30104e-18
1.43115e-17
-1.0842e-18
2.60209e-18
-4.33681e-19
8.67362e-19
-8.67362e-19
-4.77049e-18
-1.0842e-18
-4.77049e-18
-2.81893e-18
-8.67362e-19
-8.67362e-19
-4.33681e-19
-1.0842e-18
-1.0842e-18
-4.33681e-19
1.73472e-18
2.1684e-18
-3.03577e-18
-4.33681e-19
-1.51788e-18
1.73472e-18
0
1.0842e-18
-1.73472e-18
8.67362e-19
2.1684e-18
2.38524e-18
4.98733e-18
1.51788e-18
-1.51788e-18
-2.38524e-18
1.30104e-18
-4.33681e-19
1.23599e-17
1.51788e-18
6.72205e-18
-2.60209e-18
1.51788e-18
-1.95156e-18
3.03577e-18
-3.68629e-18
6.28837e-18
-3.03577e-18
2.1684e-18
-5.63785e-18
-2.81893e-18
-8.45678e-18
-4.11997e-18
-5.63785e-18
-1.95156e-18
-5.63785e-18
-5.85469e-18
-3.68629e-18
-5.63785e-18
6.59195e-17
-3.46945e-18
-6.93889e-18
3.46945e-18
2.77556e-17
2.08167e-17
-7.28584e-17
-7.28584e-17
3.46945e-17
1.04083e-16
6.93889e-17
2.08167e-17
9.71445e-17
4.51028e-17
4.16334e-17
-6.93889e-18
-3.46945e-18
6.93889e-18
6.93889e-18
-3.46945e-17
1.04083e-17
-3.81639e-17
-1.56125e-16
-5.55112e-17
3.46945e-17
-5.89806e-17
-4.85723e-17
1.11022e-16
2.36616e-15
2.62949e-14
2.741e-13
2.65393e-12
2.31094e-11
1.79841e-10
1.2957e-09
8.77429e-09
5.57981e-08
3.31987e-07
1.8397e-06
9.4451e-06
4.46416e-05
0.000192164
0.000714094
0.0021302
0.00411856
0.00620026
0.00812412
0.00956802
0.0104626
0.0108937
0.0107821
0.0105693
0.0100329
0.00942993
0.00878708
0.00803524
0.0070076
0.00390153
0.000936073
0.000190263
2.75236e-05
3.05317e-06
3.20564e-07
3.3317e-08
3.41324e-09
3.43483e-10
3.37739e-11
3.1899e-12
2.77355e-13
2.1939e-14
1.66924e-15
1.22732e-16
9.97466e-18
-2.1684e-19
-4.98733e-18
-3.90313e-18
3.03577e-18
3.46945e-18
-6.50521e-19
-4.33681e-19
-4.33681e-19
1.95156e-18
-2.1684e-19
3.03577e-18
4.33681e-18
-2.60209e-18
-6.72205e-18
8.67362e-19
4.98733e-18
-3.68629e-18
-1.51788e-18
-2.38524e-18
-2.1684e-19
-4.77049e-18
-4.55365e-18
1.73472e-18
2.1684e-19
-6.50521e-19
-3.46945e-18
)
;

boundaryField
{
    sides1
    {
        type            calculated;
        value           nonuniform List<scalar> 
20
(
-9.54098e-18
-3.68629e-18
8.0231e-18
5.85469e-18
-2.1684e-18
6.28837e-18
6.50521e-19
1.01915e-17
-1.01915e-17
-6.50521e-18
-1.73472e-17
-9.02056e-17
4.16334e-17
-6.93889e-18
-6.59195e-17
-6.93889e-18
-1.04083e-17
8.32667e-17
-1.45717e-16
-5.20417e-17
)
;
    }
    sides2
    {
        type            calculated;
        value           nonuniform List<scalar> 
200
(
1.73472e-17
-3.46945e-18
-1.21431e-17
-2.60209e-17
-5.20417e-18
-1.73472e-17
-6.93889e-18
-1.56125e-17
-1.38778e-17
1.04083e-17
2.77556e-17
1.9082e-17
4.33681e-17
5.37764e-17
4.68375e-17
5.89806e-17
6.07153e-17
4.85723e-17
2.08167e-17
2.94903e-17
3.98986e-17
6.41848e-17
4.51028e-17
2.94903e-17
-5.20417e-18
3.46945e-17
8.67362e-18
-8.67362e-18
-1.73472e-18
-1.9082e-17
-3.46945e-18
0
-5.20417e-18
-3.1225e-17
7.45931e-17
-1.9082e-17
1.43982e-16
-4.68375e-16
-1.24727e-15
-7.25288e-15
-3.3416e-14
-1.33039e-13
-3.98169e-13
-1.00404e-12
-1.45426e-12
-9.09059e-13
3.0486e-13
1.51418e-13
4.68151e-12
-2.79509e-12
5.90484e-12
1.83539e-12
-1.71817e-13
-1.36746e-13
2.0405e-12
3.02912e-12
1.54297e-12
1.20614e-13
8.38847e-13
1.43531e-13
5.0505e-14
8.38674e-15
5.76362e-16
5.87638e-17
-1.30104e-17
1.6263e-17
-1.0842e-18
-8.67362e-19
-1.30104e-18
-1.0842e-18
-1.51788e-18
0
4.33681e-19
-6.50521e-19
-4.33681e-19
-2.60209e-18
-1.73472e-18
-4.33681e-19
1.0842e-18
0
-6.50521e-19
0
6.50521e-19
6.50521e-19
0
1.0842e-18
0
1.0842e-18
-8.67362e-19
6.50521e-19
-4.33681e-19
-1.0842e-18
-1.0842e-18
-2.81893e-18
-3.46945e-18
-5.85469e-18
-3.46945e-18
-3.68629e-18
-3.25261e-18
-3.68629e-18
3.46945e-17
6.93889e-18
3.46945e-18
-1.21431e-17
-1.04083e-17
-1.38778e-17
1.38778e-17
-1.21431e-17
-8.67362e-18
1.21431e-17
2.60209e-17
2.60209e-17
5.37764e-17
6.41848e-17
3.81639e-17
6.07153e-17
6.41848e-17
6.41848e-17
4.33681e-17
5.0307e-17
5.37764e-17
6.41848e-17
4.68375e-17
1.38778e-17
-8.67362e-18
4.33681e-17
1.9082e-17
-3.46945e-18
-5.20417e-18
-1.56125e-17
-2.42861e-17
-2.08167e-17
-2.42861e-17
2.60209e-17
-2.42861e-17
2.77556e-17
4.25007e-16
3.64292e-17
1.86136e-15
8.36831e-15
4.14373e-14
1.76026e-13
6.15214e-13
2.06584e-12
3.70876e-12
4.28643e-12
4.07815e-12
4.56473e-12
3.02086e-12
5.04829e-12
-1.78696e-13
2.12681e-12
1.01995e-12
1.19715e-13
1.58216e-12
3.16054e-12
5.81868e-12
5.77908e-12
6.04133e-13
1.1625e-13
-1.4651e-14
-7.77525e-15
-9.16801e-16
-5.52943e-17
-1.40946e-17
-3.46945e-18
4.33681e-19
0
0
1.30104e-18
-4.33681e-19
2.1684e-18
-6.50521e-19
-4.33681e-19
-1.51788e-18
-1.95156e-18
-2.60209e-18
-4.33681e-19
0
-4.33681e-19
0
-6.50521e-19
1.0842e-18
8.67362e-19
1.0842e-18
1.30104e-18
1.0842e-18
-2.1684e-19
-6.50521e-19
1.0842e-18
-1.95156e-18
-2.60209e-18
-2.60209e-18
-2.60209e-18
-4.77049e-18
-5.42101e-18
-4.33681e-18
-2.38524e-18
-3.68629e-18
-1.0842e-18
)
;
    }
    empty
    {
        type            empty;
        value           nonuniform 0();
    }
}


// ************************************************************************* //
