/*--------------------------------*- C++ -*----------------------------------*\
| =========                 |                                                 |
| \\      /  F ield         | OpenFOAM: The Open Source CFD Toolbox           |
|  \\    /   O peration     | Version:  3.0.0                                 |
|   \\  /    A nd           | Web:      www.OpenFOAM.org                      |
|    \\/     M anipulation  |                                                 |
\*---------------------------------------------------------------------------*/
FoamFile
{
    version     2.0;
    format      ascii;
    class       volVectorField;
    location    "5e-05";
    object      U;
}
// * * * * * * * * * * * * * * * * * * * * * * * * * * * * * * * * * * * * * //

dimensions      [0 1 -1 0 0 0 0];

internalField   nonuniform List<vector> 
1000
(
(1.98432e-13 -3.62139e-13 0)
(-1.15558e-13 6.36151e-14 0)
(-8.47423e-13 2.04269e-13 0)
(2.27614e-13 5.38102e-13 0)
(4.08537e-14 6.18642e-14 0)
(-5.04251e-13 3.43755e-13 0)
(-2.95898e-13 1.1439e-13 0)
(-8.34583e-14 2.77222e-13 0)
(2.87143e-13 2.82182e-13 0)
(9.58311e-13 -1.63707e-13 0)
(1.82616e-12 -5.10088e-13 0)
(1.37152e-13 -3.3325e-13 0)
(-3.50175e-15 -8.45672e-13 0)
(-1.63415e-13 -1.01376e-12 0)
(2.90645e-13 -9.37301e-13 0)
(2.57962e-13 -1.15587e-12 0)
(-2.26446e-13 -1.18447e-12 0)
(-7.34199e-13 -9.41386e-13 0)
(1.57579e-14 -4.19334e-13 0)
(3.25662e-13 -5.98799e-13 0)
(-2.44539e-13 -7.97523e-13 0)
(9.04618e-14 -1.26063e-12 0)
(-1.68667e-13 -9.017e-13 0)
(-2.08938e-12 -5.63198e-13 0)
(4.7507e-13 4.26046e-14 0)
(-2.22361e-13 -6.83424e-13 0)
(-8.66099e-13 -1.55536e-13 0)
(7.70384e-13 1.60497e-13 0)
(3.2181e-12 3.09321e-14 0)
(3.84924e-11 3.26538e-13 0)
(4.19873e-10 3.06403e-14 0)
(4.41766e-09 2.8014e-14 0)
(4.65173e-08 1.02426e-13 0)
(4.20055e-07 7.24278e-13 0)
(3.25777e-06 -1.47715e-12 0)
(2.35416e-05 3.78772e-13 0)
(0.000160161 -2.86326e-12 0)
(0.00102336 9.32314e-12 0)
(0.00611671 2.50947e-11 0)
(0.0340413 1.45236e-10 0)
(0.175522 6.67854e-10 0)
(0.83658 2.65736e-09 0)
(3.73448 7.97564e-09 0)
(15.6684 2.06473e-08 0)
(37.4363 3.14804e-08 0)
(63.6595 2.10419e-08 0)
(96.5555 -8.23832e-09 0)
(133.525 -4.50333e-09 0)
(170.679 -1.57318e-07 0)
(209.801 1.06149e-07 0)
(242.039 -2.62482e-07 0)
(257.703 -8.79272e-08 0)
(275.238 8.63646e-09 0)
(276.486 6.17991e-09 0)
(282.214 -1.25971e-07 0)
(279.308 -1.97855e-07 0)
(267.868 -1.06764e-07 0)
(232.448 -6.64653e-09 0)
(122.029 -9.99033e-08 0)
(31.2044 -2.10621e-08 0)
(4.5414 -8.0245e-09 0)
(0.444638 -1.37401e-09 0)
(0.0453077 -9.58781e-11 0)
(0.00469636 -9.6458e-12 0)
(0.000480551 2.03468e-12 0)
(4.82874e-05 -2.59407e-12 0)
(4.74369e-06 1.92586e-13 0)
(4.48803e-07 1.24597e-13 0)
(3.76353e-08 2.33146e-13 0)
(2.70056e-09 1.6647e-13 0)
(2.08285e-10 2.01048e-13 0)
(1.56564e-11 -6.71133e-15 0)
(2.14471e-13 -3.74959e-14 0)
(-4.22522e-13 1.03588e-13 0)
(-2.38982e-13 3.60369e-14 0)
(-6.50999e-13 3.913e-13 0)
(1.03588e-13 3.08429e-13 0)
(6.20069e-13 2.97633e-14 0)
(-4.3186e-14 -1.56111e-13 0)
(3.41986e-13 -8.17032e-15 0)
(-8.1995e-14 1.24014e-13 0)
(-2.13304e-13 6.56543e-15 0)
(6.13649e-13 -8.7685e-14 0)
(2.98217e-13 -1.40354e-13 0)
(5.92348e-14 4.96055e-15 0)
(-5.97017e-13 -1.95066e-13 0)
(-1.01545e-13 -1.88209e-14 0)
(5.83594e-14 -1.73911e-13 0)
(3.00551e-14 1.29558e-13 0)
(-3.67664e-14 -1.16573e-13 0)
(-5.98768e-13 6.93018e-14 0)
(-9.33751e-15 1.45753e-13 0)
(-2.12428e-13 1.48233e-13 0)
(7.03231e-14 4.6921e-13 0)
(-1.04172e-13 5.79655e-13 0)
(1.23138e-13 9.32e-13 0)
(2.25851e-13 5.29903e-13 0)
(1.95212e-13 5.65649e-13 0)
(-1.2022e-13 5.41575e-13 0)
(-7.26575e-13 5.74694e-13 0)
(9.02283e-13 -3.79939e-13 0)
(1.23728e-12 -6.83424e-13 0)
(1.23728e-13 1.52326e-13 0)
(5.83624e-14 9.22127e-14 0)
(-2.68467e-13 -4.11455e-14 0)
(-4.90828e-13 -2.48624e-13 0)
(-6.54827e-13 -3.39378e-13 0)
(5.36934e-13 -1.06803e-13 0)
(-9.12789e-13 -8.25828e-14 0)
(-5.64948e-13 -2.34617e-13 0)
(1.20285e-12 -1.01959e-12 0)
(-6.83424e-13 -1.0336e-12 0)
(-5.78955e-13 -1.1941e-12 0)
(1.04469e-13 -5.51233e-13 0)
(-2.95898e-13 -9.67649e-13 0)
(-5.64365e-13 -8.6464e-13 0)
(-1.32483e-13 -1.20285e-12 0)
(8.52092e-13 -1.2723e-12 0)
(4.42387e-13 -1.06395e-12 0)
(-1.66917e-13 -1.25071e-12 0)
(-1.35518e-12 -7.6805e-13 0)
(-8.81273e-14 -8.65807e-13 0)
(1.39953e-12 -7.64256e-13 0)
(3.96281e-13 -3.98615e-13 0)
(-2.52126e-13 -5.13589e-14 0)
(-1.05403e-12 -5.05711e-13 0)
(9.13372e-13 1.55536e-13 0)
(1.52676e-12 -9.42553e-14 0)
(2.98407e-12 3.14282e-13 0)
(3.89458e-11 -2.36368e-14 0)
(4.19046e-10 4.2021e-14 0)
(4.41777e-09 -8.46255e-15 0)
(4.65176e-08 -8.31665e-14 0)
(4.20057e-07 4.32466e-13 0)
(3.25776e-06 4.39177e-13 0)
(2.35416e-05 1.40245e-12 0)
(0.000160161 2.04854e-13 0)
(0.00102336 5.51381e-12 0)
(0.00611671 1.39336e-11 0)
(0.0340413 7.1683e-11 0)
(0.175522 3.18561e-10 0)
(0.83658 1.26825e-09 0)
(3.73448 3.83818e-09 0)
(15.6684 9.67123e-09 0)
(37.4363 1.32968e-08 0)
(63.6595 7.12313e-09 0)
(96.5555 -8.172e-09 0)
(133.525 -7.35366e-09 0)
(170.679 -6.5587e-08 0)
(209.801 9.37312e-08 0)
(242.039 -4.7624e-07 0)
(257.703 -3.93159e-08 0)
(275.238 9.77731e-08 0)
(276.486 7.32062e-08 0)
(282.214 1.36704e-07 0)
(279.308 1.75832e-07 0)
(267.868 8.62979e-08 0)
(232.448 2.08245e-08 0)
(122.029 -7.80246e-08 0)
(31.2044 -2.98286e-08 0)
(4.5414 -4.15899e-09 0)
(0.444638 -6.92787e-10 0)
(0.0453077 -4.61705e-11 0)
(0.00469636 -9.38111e-13 0)
(0.000480551 2.57613e-12 0)
(4.82874e-05 2.80563e-13 0)
(4.74369e-06 2.25472e-12 0)
(4.48801e-07 7.77931e-13 0)
(3.7635e-08 -1.99735e-13 0)
(2.70134e-09 -9.70225e-14 0)
(2.07086e-10 -4.08808e-13 0)
(1.52802e-11 -4.46741e-13 0)
(7.80265e-13 -5.1721e-13 0)
(-2.7604e-13 -1.2985e-13 0)
(2.51529e-13 -1.44585e-13 0)
(6.01102e-14 7.73262e-15 0)
(-6.14816e-13 8.92899e-14 0)
(-5.18815e-13 -3.42862e-14 0)
(-1.59613e-13 2.96174e-14 0)
(1.1844e-12 -4.55203e-14 0)
(-7.29493e-14 2.51675e-13 0)
(-5.62876e-13 1.54069e-13 0)
(4.29233e-13 4.23106e-13 0)
(2.36356e-14 -1.26202e-13 0)
(1.28391e-14 -4.88468e-13 0)
(-5.90889e-13 -3.78023e-13 0)
(-1.09132e-13 -1.69096e-13 0)
(5.26694e-13 -1.68075e-13 0)
(1.62239e-13 4.50826e-14 0)
(-2.82751e-13 -1.79017e-13 0)
(3.61828e-14 -1.07965e-14 0)
(1.51734e-13 -8.6226e-14 0)
(3.58327e-13 -2.94277e-13 0)
(9.27331e-13 -1.10445e-13 0)
(7.48751e-13 -7.25116e-14 0)
(2.77207e-14 9.29374e-14 0)
(-4.98389e-13 -1.22117e-13 0)
(2.76915e-13 5.66232e-13 0)
(-5.92348e-14 2.5824e-13 0)
(-2.72538e-13 1.10591e-12 0)
(-3.86943e-13 3.37043e-13 0)
(3.37919e-13 -1.82383e-13 0)
(6.62997e-13 -1.2831e-12 0)
(-4.78572e-14 -7.46456e-13 0)
(-7.31865e-13 -1.09984e-12 0)
(-9.54809e-13 -8.11238e-13 0)
(1.05636e-13 -8.03067e-13 0)
(3.65932e-13 -4.65149e-13 0)
(4.52309e-13 -4.17e-13 0)
(-4.30715e-13 6.04927e-13 0)
(1.07971e-13 -7.73302e-14 0)
(1.8676e-14 -1.58746e-13 0)
(3.14574e-13 1.20227e-13 0)
(2.97648e-14 -1.90553e-13 0)
(-3.86943e-13 2.12147e-13 0)
(3.50175e-14 5.67575e-13 0)
(-8.92362e-13 3.97156e-13 0)
(2.19443e-13 2.05436e-13 0)
(5.89461e-14 -3.1399e-13 0)
(4.71568e-13 1.14099e-13 0)
(-1.07971e-13 -9.25045e-14 0)
(-1.87927e-13 4.7507e-13 0)
(9.97414e-13 2.24695e-14 0)
(-2.50375e-13 -7.67466e-14 0)
(1.34234e-13 -5.25262e-14 0)
(1.8676e-13 -3.20993e-14 0)
(-7.35367e-14 5.0075e-13 0)
(7.76804e-13 -1.79756e-13 0)
(3.39027e-12 -3.35584e-13 0)
(3.76134e-11 -7.31865e-13 0)
(4.20399e-10 8.46255e-14 0)
(4.41754e-09 -4.75654e-14 0)
(4.65169e-08 -5.82165e-13 0)
(4.20059e-07 -6.51033e-13 0)
(3.25777e-06 1.53201e-13 0)
(2.35416e-05 -1.08233e-12 0)
(0.000160161 1.10301e-13 0)
(0.00102336 -1.28069e-11 0)
(0.00611671 -5.72604e-11 0)
(0.0340413 -2.49353e-10 0)
(0.175522 -1.07183e-09 0)
(0.83658 -4.04042e-09 0)
(3.73448 -1.24301e-08 0)
(15.6684 -3.14408e-08 0)
(37.4363 -3.9737e-08 0)
(63.6595 -1.73871e-08 0)
(96.5555 1.59954e-08 0)
(133.525 -1.84647e-09 0)
(170.679 6.94661e-08 0)
(209.801 -1.68301e-07 0)
(242.039 -2.21158e-08 0)
(257.703 -1.95334e-07 0)
(275.238 -3.59744e-07 0)
(276.486 -2.88064e-07 0)
(282.214 -3.77349e-08 0)
(279.308 7.86269e-08 0)
(267.868 -4.53976e-08 0)
(232.448 -1.38121e-08 0)
(122.029 1.68219e-07 0)
(31.2044 5.61434e-08 0)
(4.5414 1.44129e-08 0)
(0.444638 1.75629e-09 0)
(0.0453077 1.39228e-10 0)
(0.00469636 1.47521e-11 0)
(0.000480551 -2.47616e-12 0)
(4.82874e-05 1.52041e-12 0)
(4.74368e-06 -4.53744e-13 0)
(4.48797e-07 -4.94888e-13 0)
(3.76358e-08 -7.29347e-13 0)
(2.69992e-09 -2.74289e-13 0)
(2.07419e-10 -5.99205e-13 0)
(1.5919e-11 -2.90192e-13 0)
(8.87647e-13 -3.87944e-13 0)
(-5.83594e-14 9.30833e-14 0)
(-6.71133e-14 1.04463e-13 0)
(-2.91797e-16 -6.71133e-15 0)
(5.7484e-14 4.07786e-13 0)
(4.22814e-13 2.34751e-13 0)
(8.75391e-16 1.63406e-14 0)
(5.33405e-13 3.13974e-13 0)
(4.95471e-13 -3.90424e-13 0)
(-1.65741e-13 5.29612e-13 0)
(2.40733e-13 2.3227e-13 0)
(-1.5509e-12 -7.67426e-14 0)
(1.47649e-13 1.67346e-13 0)
(-1.45315e-13 1.17302e-13 0)
(-5.04809e-14 -2.7283e-14 0)
(5.15314e-13 -5.95266e-14 0)
(2.74289e-14 -2.39128e-13 0)
(-2.40733e-13 9.16243e-14 0)
(-4.32151e-13 -3.14849e-13 0)
(-6.20361e-13 -3.10764e-14 0)
(-2.11261e-13 -1.22555e-13 0)
(8.03901e-13 -3.6781e-13 0)
(5.25526e-13 -2.90776e-13 0)
(-6.27364e-14 -4.7417e-13 0)
(6.48081e-13 -1.18178e-13 0)
(7.91354e-13 -9.81897e-14 0)
(7.45833e-13 -8.32059e-13 0)
(6.62963e-13 -1.69242e-13 0)
(4.669e-14 -9.45471e-14 0)
(-1.51392e-12 5.48899e-13 0)
(-4.41804e-13 -5.37518e-13 0)
(-7.2953e-14 -7.58712e-15 0)
(-2.42788e-13 -6.24478e-13 0)
(-1.82674e-13 3.87235e-13 0)
(1.76255e-13 7.2953e-15 0)
(7.021e-13 -4.56978e-13 0)
(1.14916e-12 -3.79356e-14 0)
(-2.10105e-14 -2.52126e-13 0)
(-6.90428e-13 1.75379e-13 0)
(-1.69251e-14 -9.86325e-14 0)
(-4.87326e-13 2.66716e-13 0)
(-8.63764e-14 -2.39286e-14 0)
(1.6715e-12 -4.96081e-14 0)
(-1.96681e-13 2.91812e-15 0)
(-1.10188e-12 1.1264e-13 0)
(-6.33816e-13 3.21869e-13 0)
(3.70018e-13 4.8149e-14 0)
(3.43755e-13 2.59129e-13 0)
(-2.84809e-13 -1.29565e-13 0)
(1.08554e-13 7.58712e-14 0)
(-1.63415e-14 -1.16725e-15 0)
(3.75854e-13 -4.11747e-13 0)
(-1.90845e-13 -1.9814e-13 0)
(1.05052e-13 -2.45706e-13 0)
(6.8109e-13 -1.34234e-14 0)
(-5.01917e-14 5.16508e-14 0)
(2.49266e-12 7.84975e-14 0)
(3.87801e-11 9.13372e-14 0)
(4.21445e-10 1.91137e-13 0)
(4.41614e-09 -5.16508e-14 0)
(4.6516e-08 -4.52309e-14 0)
(4.20055e-07 -3.02638e-12 0)
(3.25777e-06 -1.82908e-12 0)
(2.35416e-05 -6.69067e-12 0)
(0.000160161 -2.1171e-12 0)
(0.00102336 -7.74732e-12 0)
(0.00611671 -6.97177e-12 0)
(0.0340413 -1.11706e-11 0)
(0.175522 -3.36646e-11 0)
(0.83658 -1.45402e-10 0)
(3.73448 -7.04654e-10 0)
(15.6684 -3.79234e-09 0)
(37.4363 -8.55958e-09 0)
(63.6595 -1.4824e-08 0)
(96.5555 -2.50053e-08 0)
(133.525 -5.15361e-08 0)
(170.679 -5.71444e-08 0)
(209.801 -1.32049e-07 0)
(242.039 1.14425e-07 0)
(257.703 2.83241e-09 0)
(275.238 -8.97181e-08 0)
(276.486 4.34048e-08 0)
(282.214 1.09202e-08 0)
(279.308 2.45467e-08 0)
(267.868 2.00981e-07 0)
(232.448 2.5501e-07 0)
(122.029 9.09291e-08 0)
(31.2044 2.229e-08 0)
(4.5414 -2.35654e-09 0)
(0.444638 -8.50925e-10 0)
(0.0453077 -8.94572e-11 0)
(0.00469636 -1.08799e-11 0)
(0.000480551 -7.88304e-12 0)
(4.82874e-05 -2.73837e-12 0)
(4.74369e-06 -4.67328e-12 0)
(4.48802e-07 -1.58665e-12 0)
(3.7637e-08 1.64865e-13 0)
(2.70031e-09 2.2979e-13 0)
(2.07352e-10 2.68161e-13 0)
(1.53132e-11 2.59699e-14 0)
(1.7893e-12 3.84005e-13 0)
(1.18032e-12 4.69647e-13 0)
(1.96963e-13 1.03019e-12 0)
(1.8996e-13 8.0784e-13 0)
(-8.17032e-14 6.19923e-13 0)
(-1.55674e-12 3.00989e-13 0)
(1.72744e-13 -1.03442e-13 0)
(3.14849e-13 4.1654e-13 0)
(6.39036e-14 6.81346e-14 0)
(1.22584e-12 2.95882e-13 0)
(-1.07936e-12 4.84529e-13 0)
(-1.23722e-13 5.58354e-13 0)
(5.12104e-13 6.84264e-13 0)
(-9.67891e-13 7.30368e-13 0)
(-4.23981e-13 1.04259e-12 0)
(9.9211e-15 6.06646e-13 0)
(3.2798e-13 2.60867e-13 0)
(-2.37523e-13 2.68599e-13 0)
(-6.94477e-14 3.38193e-13 0)
(3.71458e-13 6.10294e-13 0)
(-5.13271e-13 2.67578e-13 0)
(4.77672e-13 1.58446e-13 0)
(5.69004e-13 3.76856e-13 0)
(2.42192e-13 4.96055e-15 0)
(5.31654e-13 4.08516e-14 0)
(-7.46417e-13 -4.96784e-13 0)
(-1.14968e-13 -2.02215e-13 0)
(4.84383e-13 -8.96546e-13 0)
(6.50158e-13 1.07971e-14 0)
(-7.91978e-13 1.31315e-14 0)
(-2.99399e-13 -2.83058e-14 0)
(-7.35367e-14 3.72352e-13 0)
(-1.44155e-13 -2.0135e-13 0)
(4.96664e-13 2.62631e-14 0)
(-1.83725e-12 8.5501e-14 0)
(6.16891e-13 -4.40928e-13 0)
(7.28363e-13 -1.62248e-13 0)
(2.50958e-13 -6.85175e-13 0)
(2.8831e-13 4.43555e-14 0)
(-9.92161e-15 -2.00475e-13 0)
(4.99582e-13 -1.72169e-14 0)
(-4.39171e-13 -1.40945e-13 2.13095e-33)
(-2.15656e-13 -1.47365e-13 0)
(7.82057e-14 -3.8811e-13 0)
(1.10889e-13 -7.12022e-14 0)
(-1.02718e-13 2.71677e-13 0)
(-9.04618e-14 2.70218e-13 0)
(1.1439e-13 -5.22344e-14 0)
(-5.80706e-13 -4.17291e-14 0)
(5.14472e-13 1.16725e-14 0)
(-2.92694e-13 1.25479e-13 0)
(-5.0075e-13 -5.98215e-14 0)
(2.59129e-13 8.19992e-14 0)
(6.86342e-13 -1.71002e-13 0)
(4.49974e-13 -7.41203e-14 0)
(9.9683e-13 -1.39486e-13 0)
(3.17141e-12 4.16708e-13 0)
(3.80634e-11 1.40362e-13 0)
(4.20397e-10 1.00675e-13 0)
(4.41702e-09 -1.35693e-13 2.13095e-33)
(4.65155e-08 5.85959e-13 0)
(4.2005e-07 -3.66516e-13 0)
(3.25777e-06 -3.99491e-13 0)
(2.35416e-05 -7.10854e-13 0)
(0.000160161 5.97515e-12 -2.13095e-33)
(0.00102336 6.04357e-12 0)
(0.00611671 7.14398e-11 0)
(0.0340413 2.8085e-10 2.13085e-33)
(0.175522 1.11716e-09 0)
(0.83658 4.13723e-09 0)
(3.73448 1.28798e-08 0)
(15.6684 3.30839e-08 -2.07009e-33)
(37.4363 4.06667e-08 0)
(63.6595 1.29127e-08 0)
(96.5555 -2.55373e-08 0)
(133.525 -1.63423e-08 0)
(170.679 -8.97988e-08 0)
(209.801 4.67483e-08 0)
(242.039 -5.93524e-08 0)
(257.703 1.04247e-07 0)
(275.238 2.17282e-07 0)
(276.486 1.51326e-07 0)
(282.214 8.77376e-08 0)
(279.308 6.21342e-08 -1.07467e-33)
(267.868 9.53148e-08 1.12304e-33)
(232.448 5.49492e-08 0)
(122.029 -1.39613e-07 0)
(31.2044 -6.97579e-08 -9.2949e-34)
(4.5414 -1.53942e-08 0)
(0.444638 -9.19237e-10 0)
(0.0453077 -9.42149e-11 0)
(0.00469636 -7.72048e-12 0)
(0.000480551 -3.11504e-13 0)
(4.82874e-05 -6.79595e-13 0)
(4.74369e-06 5.80238e-13 0)
(4.48805e-07 -1.63406e-14 0)
(3.76363e-08 1.21767e-12 0)
(2.70017e-09 1.41522e-14 0)
(2.07282e-10 3.1339e-13 0)
(1.60507e-11 2.18994e-13 8.52337e-34)
(1.67404e-12 5.67399e-13 0)
(9.21609e-13 4.57392e-13 0)
(2.13773e-13 3.47384e-13 0)
(-3.25468e-13 7.06149e-14 0)
(-9.68303e-13 1.30579e-13 0)
(-1.04125e-12 -1.35248e-13 0)
(7.25287e-13 5.91181e-13 0)
(8.06997e-13 1.44731e-13 0)
(3.54419e-13 7.73408e-13 0)
(3.74838e-13 3.45488e-13 0)
(6.85317e-13 1.74641e-13 0)
(-6.26901e-13 9.10261e-13 0)
(-2.74987e-13 4.99411e-13 0)
(4.73181e-13 5.17648e-13 0)
(6.26155e-14 7.63779e-13 0)
(-5.65908e-13 6.70404e-13 0)
(-5.67111e-13 1.00933e-12 0)
(-2.56867e-13 6.54063e-13 0)
(5.71067e-14 8.60947e-13 0)
(-1.05298e-12 1.85145e-13 -8.52337e-34)
(-7.52338e-13 2.98071e-13 0)
(1.02451e-12 2.2658e-13 -8.52337e-34)
(2.48489e-14 1.35686e-14 0)
(-5.00517e-13 -7.68885e-14 0)
(-1.05422e-13 -3.84297e-13 0)
(9.13128e-14 -1.21096e-14 0)
(9.00818e-14 3.77148e-13 0)
(-1.93461e-13 2.88004e-13 0)
(6.12806e-14 2.65549e-13 0)
(-1.61839e-12 -3.47257e-14 0)
(-4.49391e-14 3.37919e-13 0)
(-1.6108e-13 -5.51525e-14 0)
(-7.8906e-13 6.71168e-15 0)
(2.14774e-13 -5.53276e-13 0)
(-9.2913e-13 -2.21777e-13 0)
(4.98415e-13 7.73302e-14 0)
(4.5406e-13 -2.65257e-13 0)
(5.73119e-13 -1.33358e-13 0)
(1.4649e-13 4.8149e-14 0)
(-3.15249e-28 -6.6825e-14 0)
(-7.47039e-14 7.41203e-14 0)
(2.12439e-13 -2.38119e-13 -2.13095e-33)
(2.96481e-13 2.36951e-13 0)
(-2.04852e-13 2.87727e-13 0)
(3.75854e-13 -1.22269e-13 0)
(2.27614e-14 6.04051e-14 0)
(-4.80906e-13 -1.29565e-13 0)
(-1.72753e-13 -2.55627e-13 0)
(-2.10105e-13 4.96081e-14 0)
(8.73686e-13 -9.97998e-14 0)
(-6.4257e-13 -4.82074e-13 0)
(1.51159e-13 6.41987e-15 0)
(-6.65332e-14 -1.37152e-14 0)
(-1.85593e-13 3.14865e-13 0)
(8.52092e-13 -2.32866e-13 0)
(7.21943e-13 3.86359e-13 0)
(3.00158e-12 -6.23019e-13 0)
(3.84877e-11 4.669e-14 0)
(4.20515e-10 1.63415e-14 0)
(4.41654e-09 3.97156e-13 -2.13095e-33)
(4.65169e-08 2.6088e-13 0)
(4.2005e-07 2.07187e-13 0)
(3.25777e-06 -6.56577e-13 0)
(2.35416e-05 1.56995e-13 0)
(0.000160161 -1.39515e-12 2.13095e-33)
(0.00102336 3.5038e-12 0)
(0.00611671 7.6796e-12 0)
(0.0340413 5.31153e-11 -2.13085e-33)
(0.175522 2.65331e-10 0)
(0.83658 1.13999e-09 0)
(3.73448 3.96394e-09 0)
(15.6684 1.27285e-08 2.07009e-33)
(37.4363 2.30906e-08 0)
(63.6595 2.79683e-08 0)
(96.5555 2.19497e-08 0)
(133.525 2.35865e-08 0)
(170.679 9.1231e-10 0)
(209.801 9.33096e-08 0)
(242.039 -1.32104e-07 0)
(257.703 -6.95569e-08 0)
(275.238 -7.04109e-08 0)
(276.486 -5.38891e-08 0)
(282.214 -2.11955e-07 0)
(279.308 -3.75095e-07 1.07467e-33)
(267.868 -5.89555e-07 -1.12304e-33)
(232.448 -6.62384e-07 0)
(122.029 -1.54838e-07 0)
(31.2044 -2.53914e-08 9.2949e-34)
(4.5414 4.65586e-09 0)
(0.444638 1.70208e-09 0)
(0.0453077 1.93973e-10 0)
(0.00469636 1.85523e-11 0)
(0.000480551 2.08068e-12 0)
(4.82874e-05 3.95093e-13 0)
(4.74369e-06 8.30017e-13 0)
(4.48808e-07 2.06446e-13 0)
(3.76347e-08 -3.89549e-14 0)
(2.70005e-09 4.12747e-13 0)
(2.07697e-10 1.74203e-13 0)
(1.5584e-11 6.5917e-13 -8.52337e-34)
(2.30607e-12 9.14784e-14 0)
(9.68766e-13 3.90133e-13 0)
(-4.56371e-13 8.21409e-14 0)
(-7.52836e-14 -8.60801e-15 0)
(-6.11607e-13 2.85669e-13 0)
(-4.71252e-13 2.8246e-13 0)
(3.20101e-13 4.47617e-13 0)
(7.40581e-13 1.23868e-13 0)
(5.90597e-13 6.08397e-14 0)
(3.55992e-14 1.71723e-13 0)
(3.02885e-13 -1.23576e-13 0)
(2.27602e-13 -1.88355e-13 0)
(7.17821e-14 -1.67637e-13 0)
(-1.15552e-13 -9.38127e-14 0)
(-1.44731e-13 -1.49838e-13 0)
(4.37696e-14 -7.32411e-14 0)
(5.86512e-14 1.79309e-13 0)
(-5.05684e-13 1.45607e-13 0)
(-5.83886e-13 3.26813e-14 0)
(-3.01718e-13 6.901e-14 8.52337e-34)
(-6.62379e-13 2.62763e-13 0)
(-2.20307e-13 6.85723e-15 8.52337e-34)
(1.94045e-13 8.25786e-14 0)
(-5.29028e-13 2.44088e-13 0)
(3.1339e-13 3.3119e-14 0)
(1.03967e-12 2.9311e-13 0)
(-1.60488e-14 2.11991e-13 0)
(4.95763e-13 2.6962e-13 0)
(1.19643e-13 -3.27121e-13 0)
(-2.29364e-13 -9.9187e-13 0)
(-4.86743e-13 6.83424e-13 0)
(-8.90027e-13 -8.80106e-13 0)
(-9.33799e-13 5.19426e-13 0)
(1.35401e-13 -2.36951e-13 0)
(-4.52309e-13 2.00183e-13 0)
(3.89861e-13 3.04944e-13 0)
(3.22161e-13 1.63415e-13 0)
(8.86525e-13 4.49974e-13 0)
(2.43955e-13 -1.96973e-13 0)
(6.59496e-14 2.53001e-13 0)
(1.75671e-13 -2.41037e-13 0)
(-5.17091e-13 3.12239e-13 0)
(9.40802e-13 -2.8014e-13 0)
(-4.15541e-13 -5.83624e-14 0)
(-4.34217e-13 -2.87727e-13 0)
(6.24478e-14 -6.43738e-13 0)
(-7.87309e-13 4.348e-14 0)
(5.91795e-13 -3.56594e-13 0)
(3.96865e-14 2.8335e-13 0)
(-1.02601e-12 -1.65458e-13 0)
(1.05636e-13 7.58712e-15 0)
(4.49974e-13 8.49173e-14 0)
(9.12789e-13 -2.18567e-13 0)
(-4.37718e-14 2.78389e-13 0)
(3.4142e-13 -5.82457e-13 0)
(4.56394e-13 -2.57378e-13 0)
(2.53001e-12 -1.3365e-13 0)
(3.97524e-11 -3.92487e-13 0)
(4.20471e-10 -9.6298e-14 0)
(4.41788e-09 -1.7392e-13 0)
(4.65146e-08 -1.18768e-13 0)
(4.20049e-07 4.5727e-13 0)
(3.25777e-06 1.78151e-12 0)
(2.35416e-05 2.6123e-12 0)
(0.000160161 -9.0841e-13 0)
(0.00102336 -1.13468e-12 0)
(0.00611671 -5.74478e-11 0)
(0.0340413 -2.77417e-10 0)
(0.175522 -1.1876e-09 0)
(0.83658 -4.47923e-09 0)
(3.73448 -1.42236e-08 0)
(15.6684 -3.70819e-08 0)
(37.4363 -5.38658e-08 0)
(63.6595 -3.93827e-08 0)
(96.5555 -1.19297e-08 0)
(133.525 -3.00112e-08 0)
(170.679 3.26299e-08 0)
(209.801 -1.53283e-07 0)
(242.039 -4.33008e-08 0)
(257.703 -1.26e-07 0)
(275.238 -1.27141e-07 0)
(276.486 -1.39769e-07 0)
(282.214 -4.40733e-08 0)
(279.308 -4.62556e-09 0)
(267.868 3.31629e-08 0)
(232.448 3.68438e-08 0)
(122.029 -5.95714e-08 0)
(31.2044 -2.77775e-08 0)
(4.5414 -1.25781e-09 0)
(0.444638 -5.08624e-10 0)
(0.0453077 -4.43967e-11 0)
(0.00469636 -1.10273e-12 0)
(0.000480551 5.27772e-12 0)
(4.82874e-05 3.12033e-12 0)
(4.74369e-06 1.95037e-12 0)
(4.48803e-07 1.9832e-12 0)
(3.76367e-08 -6.02561e-13 0)
(2.69987e-09 3.76418e-14 0)
(2.08052e-10 -6.06938e-14 0)
(1.5582e-11 1.8179e-13 0)
(1.67375e-12 -4.31714e-13 0)
(5.58208e-13 -8.64595e-13 0)
(-6.46039e-13 -9.68328e-13 0)
(1.05047e-13 -7.11839e-13 0)
(-3.52783e-13 -6.88933e-13 0)
(-4.14935e-13 -2.83627e-13 0)
(1.1205e-13 -2.3621e-13 0)
(-2.33438e-15 -7.49481e-13 0)
(6.332e-13 -7.12277e-13 0)
(2.36647e-13 -9.32875e-13 0)
(-2.68745e-13 -5.85637e-13 0)
(-1.02129e-12 -8.48108e-13 0)
(-2.31103e-13 -1.01312e-12 0)
(6.98854e-13 -9.75477e-13 0)
(7.99524e-14 -1.16938e-12 0)
(3.03469e-14 -6.68945e-13 0)
(-6.12774e-14 -1.24306e-12 0)
(-1.26056e-13 -8.38916e-13 0)
(-1.9813e-13 -6.30719e-13 0)
(-6.35826e-13 -5.04809e-13 0)
(-8.87355e-13 -3.76856e-13 0)
(6.04603e-13 -1.92294e-13 0)
(7.75888e-13 -2.04404e-13 0)
(-7.64216e-13 3.98157e-13 0)
(5.80676e-14 1.01545e-13 0)
(5.91473e-13 4.09245e-13 0)
(-1.07965e-14 2.85961e-14 0)
(7.35329e-14 2.83481e-13 0)
(-8.70184e-13 -8.6639e-13 0)
(2.14774e-13 6.50741e-14 0)
(4.2021e-14 2.59713e-13 0)
(5.83624e-15 4.98999e-13 0)
(1.89094e-13 1.2974e-12 0)
(-4.0737e-13 1.13252e-12 0)
(5.98215e-13 8.40127e-13 0)
(2.72553e-13 1.28572e-12 0)
(5.20593e-13 8.05693e-13 0)
(-5.6845e-13 2.85684e-13 0)
(6.94513e-14 -2.17692e-13 0)
(-3.02317e-13 2.71969e-13 0)
(-1.07971e-13 -7.12897e-13 0)
(1.83258e-13 -1.27814e-13 0)
(-3.01734e-13 3.85192e-14 0)
(-6.53659e-14 -4.74195e-13 0)
(-9.2913e-13 -8.92945e-14 0)
(7.51708e-13 -4.33925e-13 0)
(1.38903e-13 3.23328e-13 0)
(1.45906e-13 9.4839e-14 0)
(1.11472e-13 -2.83058e-14 0)
(-1.97265e-13 -1.1439e-13 0)
(6.02884e-13 3.64473e-13 0)
(-1.34234e-13 2.59421e-13 0)
(1.52326e-13 6.31773e-13 0)
(-7.78555e-13 -2.30532e-13 0)
(-2.70802e-13 -2.09813e-13 0)
(1.6324e-12 3.58929e-14 0)
(2.61639e-12 1.73045e-13 0)
(3.82315e-11 8.52092e-14 0)
(4.21238e-10 -2.13023e-13 0)
(4.41696e-09 -5.34016e-14 0)
(4.65171e-08 1.85884e-13 0)
(4.20054e-07 7.83516e-13 0)
(3.25778e-06 6.38193e-13 0)
(2.35416e-05 4.21377e-12 0)
(0.000160161 -1.9671e-12 0)
(0.00102336 2.29421e-12 0)
(0.00611671 -3.03421e-12 0)
(0.0340413 -2.03065e-11 0)
(0.175522 -7.56625e-11 0)
(0.83658 -4.60591e-10 0)
(3.73448 -2.13605e-09 0)
(15.6684 -1.16759e-08 0)
(37.4363 -2.53223e-08 0)
(63.6595 -3.83125e-08 0)
(96.5555 -4.49819e-08 0)
(133.525 -3.25728e-08 0)
(170.679 -3.68635e-08 0)
(209.801 -3.06329e-08 0)
(242.039 9.43453e-08 0)
(257.703 6.05316e-08 0)
(275.238 2.84831e-08 0)
(276.486 -4.37428e-08 0)
(282.214 -8.25478e-09 0)
(279.308 4.80329e-08 0)
(267.868 8.16662e-08 0)
(232.448 1.06321e-07 0)
(122.029 4.19664e-08 0)
(31.2044 8.13697e-11 0)
(4.5414 -1.836e-09 0)
(0.444638 -5.48665e-10 0)
(0.0453077 -4.88392e-11 0)
(0.00469636 -7.38243e-12 0)
(0.000480551 3.06618e-12 0)
(4.82874e-05 3.25209e-13 0)
(4.74369e-06 4.62207e-13 0)
(4.48799e-07 -3.21123e-13 0)
(3.76353e-08 2.1272e-13 0)
(2.69974e-09 -4.40468e-13 0)
(2.08241e-10 2.65535e-14 0)
(1.50138e-11 -8.74224e-13 0)
(3.28855e-13 -3.11931e-13 0)
(1.05922e-13 -3.74521e-13 0)
(-4.69793e-14 -2.64514e-13 0)
(1.28099e-13 -6.12774e-14 0)
(-6.39036e-14 -4.28212e-13 0)
(1.73036e-13 -3.26083e-13 0)
(-1.80039e-13 -5.62001e-13 0)
(-1.26932e-13 -2.79979e-13 0)
(-6.12774e-15 -3.87798e-13 0)
(-6.21528e-14 -6.46914e-13 0)
(4.83508e-13 -7.95585e-13 0)
(-1.89376e-13 -7.15632e-13 0)
(-9.10407e-14 -2.61304e-13 0)
(-2.66994e-13 -5.17502e-13 0)
(9.33751e-15 -3.37755e-13 0)
(5.8943e-14 -6.35096e-13 0)
(8.37457e-14 -1.30141e-13 0)
(1.37145e-13 -4.29088e-13 0)
(-2.40733e-13 -3.61828e-14 0)
(3.35567e-14 1.21533e-13 0)
(8.75391e-16 2.71663e-13 0)
(8.89981e-14 4.38571e-13 0)
(1.05864e-12 2.15784e-13 0)
(2.36647e-13 1.90106e-13 0)
(4.2865e-13 6.39619e-13 0)
(4.19896e-13 1.31746e-13 0)
(1.43272e-13 2.75748e-13 0)
(8.26661e-13 7.60131e-14 0)
(1.45731e-12 7.38285e-14 0)
(1.97907e-12 8.59679e-13 0)
(3.37335e-13 2.25863e-13 0)
(5.66116e-13 6.35275e-13 0)
(1.48824e-13 1.88802e-13 0)
(-5.84792e-13 5.13006e-13 0)
(-3.26246e-13 8.09779e-13 0)
(1.8676e-13 -6.12806e-15 0)
(-1.3114e-12 -1.14682e-13 0)
(-7.57544e-13 -2.01642e-13 0)
(4.96664e-13 5.63198e-13 0)
(-7.69217e-13 4.25754e-13 0)
(-8.19409e-13 7.82057e-13 0)
(1.14565e-12 4.87618e-13 0)
(4.10288e-13 1.30294e-12 0)
(-7.02684e-13 8.89735e-13 0)
(-3.64182e-13 1.40011e-12 0)
(6.36151e-13 1.4967e-12 0)
(5.09504e-13 8.27288e-13 0)
(-8.63764e-14 1.47657e-12 0)
(-8.44504e-13 8.44213e-13 0)
(-3.79356e-14 9.11913e-13 0)
(1.04177e-12 7.7126e-13 0)
(7.20776e-13 5.91795e-13 0)
(-1.18476e-13 -6.2156e-14 0)
(-1.69543e-12 7.53167e-13 0)
(9.23877e-13 4.33633e-13 0)
(1.20752e-12 3.89861e-13 0)
(2.39286e-12 -4.98999e-13 0)
(3.90637e-11 7.44121e-14 0)
(4.20094e-10 -7.44413e-13 0)
(4.41863e-09 6.94513e-14 0)
(4.65161e-08 -2.60588e-13 0)
(4.20052e-07 7.91978e-13 0)
(3.25777e-06 -4.02701e-12 0)
(2.35416e-05 2.18071e-12 0)
(0.000160161 1.14274e-12 0)
(0.00102336 3.07173e-12 0)
(0.00611671 5.45237e-11 0)
(0.0340413 2.5027e-10 0)
(0.175522 1.12448e-09 0)
(0.83658 3.99514e-09 0)
(3.73448 1.29428e-08 0)
(15.6684 3.6108e-08 0)
(37.4363 5.61518e-08 0)
(63.6595 5.49726e-08 0)
(96.5555 4.04269e-08 0)
(133.525 4.9046e-08 0)
(170.679 5.65561e-08 0)
(209.801 2.66206e-07 0)
(242.039 -8.89213e-08 0)
(257.703 3.30485e-07 0)
(275.238 2.02497e-07 0)
(276.486 1.08486e-07 0)
(282.214 2.25634e-07 0)
(279.308 3.28661e-07 0)
(267.868 4.16481e-07 0)
(232.448 4.42966e-07 0)
(122.029 2.35321e-07 0)
(31.2044 1.10646e-07 0)
(4.5414 4.72104e-09 0)
(0.444638 -6.9541e-10 0)
(0.0453077 -8.34177e-11 0)
(0.00469636 -1.13004e-11 0)
(0.000480551 -3.41112e-12 0)
(4.82874e-05 -4.16672e-12 0)
(4.74369e-06 -6.2678e-13 0)
(4.48803e-07 -1.01195e-12 0)
(3.76351e-08 1.57279e-13 0)
(2.70047e-09 2.05863e-13 0)
(2.06968e-10 9.04571e-14 0)
(1.52283e-11 2.56781e-14 0)
(1.81439e-12 -1.76537e-14 0)
(4.23981e-13 1.41522e-13 0)
(1.7537e-13 2.33438e-14 0)
(-6.12774e-14 8.11196e-14 0)
(-7.14027e-13 -2.60575e-13 0)
(-3.42862e-13 2.99092e-14 0)
(-4.66875e-15 3.66205e-14 0)
(1.06214e-13 1.08694e-13 0)
(-2.94715e-14 9.01653e-14 0)
(-4.39446e-13 -4.68334e-14 0)
(3.32649e-14 1.56695e-13 0)
(-2.08051e-13 8.08278e-14 0)
(4.23106e-14 1.01545e-13 0)
(2.06301e-13 2.88004e-13 0)
(7.67426e-14 4.60164e-13 0)
(1.99881e-13 -5.55873e-14 0)
(6.0402e-14 4.71252e-14 0)
(1.94337e-13 1.61072e-13 0)
(1.1097e-12 -1.42981e-14 0)
(1.53193e-13 8.84145e-14 0)
(-2.52988e-13 1.40063e-14 0)
(5.9585e-13 1.79455e-14 0)
(3.06679e-13 1.28391e-14 0)
(-9.33751e-14 -7.08191e-13 0)
(-4.21939e-13 -1.64282e-13 0)
(-6.01102e-14 -1.21533e-12 0)
(-2.17972e-13 -3.34108e-13 0)
(-8.36582e-13 -1.42178e-12 0)
(5.27596e-13 6.6825e-13 0)
(7.93146e-13 1.03593e-13 0)
(-3.9453e-13 7.20776e-14 0)
(5.60279e-14 -2.3666e-13 0)
(1.44155e-13 -1.57287e-13 0)
(3.39669e-13 -2.94438e-13 0)
(-1.42404e-13 2.11564e-13 0)
(-1.17892e-12 -2.13898e-13 0)
(-1.75087e-13 -1.97849e-13 0)
(6.43738e-13 2.4483e-13 0)
(1.22036e-12 5.03084e-13 0)
(1.16141e-13 5.30223e-13 0)
(3.12823e-13 1.08496e-12 0)
(8.76604e-13 1.22824e-12 0)
(3.79356e-13 7.67174e-13 0)
(1.76838e-13 1.18913e-12 0)
(7.35367e-14 1.27143e-12 0)
(-2.90061e-13 1.27551e-12 0)
(-2.68467e-14 8.48882e-13 0)
(3.50175e-13 1.02368e-12 0)
(-4.56394e-13 1.09342e-12 0)
(-2.06603e-13 1.26296e-12 0)
(-7.47039e-13 9.36717e-13 0)
(-1.94172e-12 2.92104e-13 0)
(8.57344e-13 -1.95514e-13 0)
(-4.37718e-14 8.29622e-13 0)
(-6.64748e-13 3.99783e-13 0)
(-2.55044e-13 -3.12239e-14 0)
(2.13373e-12 -1.2081e-13 0)
(3.80762e-11 -3.08154e-13 0)
(4.19933e-10 -4.55519e-13 0)
(4.41898e-09 -4.41512e-13 0)
(4.65168e-08 -4.68942e-13 0)
(4.20054e-07 5.10671e-13 0)
(3.25776e-06 -4.40345e-13 0)
(2.35416e-05 6.01134e-13 0)
(0.000160161 8.43191e-12 0)
(0.00102336 8.02855e-13 0)
(0.00611671 3.73255e-11 0)
(0.0340413 1.67768e-10 0)
(0.175522 8.2907e-10 0)
(0.83658 3.52141e-09 0)
(3.73448 1.23673e-08 0)
(15.6684 4.26288e-08 0)
(37.4363 8.06231e-08 0)
(63.6595 1.00586e-07 0)
(96.5555 1.06175e-07 0)
(133.525 1.34134e-07 0)
(170.679 1.01592e-07 0)
(209.801 1.91329e-07 0)
(242.039 -8.96019e-09 0)
(257.703 1.00884e-07 0)
(275.238 5.30808e-08 0)
(276.486 6.69862e-09 0)
(282.214 9.64749e-08 0)
(279.308 2.06941e-07 0)
(267.868 4.10626e-07 0)
(232.448 4.79295e-07 0)
(122.029 7.22542e-08 0)
(31.2044 1.7544e-08 0)
(4.5414 -2.21055e-09 0)
(0.444638 -1.25086e-09 0)
(0.0453077 -1.49373e-10 0)
(0.00469636 -9.1725e-12 0)
(0.000480551 -2.2769e-12 0)
(4.82874e-05 -5.58354e-13 0)
(4.74369e-06 4.0268e-14 0)
(4.48803e-07 -1.67783e-14 0)
(3.7636e-08 1.02129e-15 0)
(2.70007e-09 2.4686e-13 0)
(2.07449e-10 -5.44201e-14 0)
(1.48603e-11 3.51324e-13 0)
(9.88317e-13 -1.00232e-13 0)
(1.70409e-13 -6.91559e-14 0)
(-2.18264e-13 -2.54593e-13 0)
(-5.25818e-13 -2.86982e-13 0)
(-1.20804e-13 -4.03847e-13 0)
(6.02561e-13 -6.02561e-14 0)
(-1.05922e-13 8.31622e-15 0)
(9.42504e-14 -5.06268e-14 0)
(-1.9492e-13 1.5757e-14 0)
(-4.1727e-14 -1.23138e-13 0)
(4.44115e-13 1.91127e-13 0)
(-2.51821e-13 1.14093e-13 0)
(3.63871e-13 1.68075e-13 0)
(3.53366e-13 2.50508e-13 0)
(-7.1928e-13 1.5013e-13 0)
(-4.26899e-13 -6.95936e-14 0)
(6.86307e-13 -1.03004e-13 0)
(-9.24997e-14 1.46628e-13 0)
(-2.69912e-13 -2.86982e-13 0)
(4.08516e-15 -3.85464e-13 0)
(-1.63115e-13 -4.17853e-13 0)
(1.95504e-14 -3.98887e-13 0)
(-5.8943e-13 -7.23073e-13 0)
(8.3454e-14 -8.35415e-13 0)
(1.12634e-13 -6.72884e-13 0)
(3.12223e-14 -4.06619e-13 0)
(4.28942e-14 -5.9512e-13 0)
(-5.15022e-13 -1.90252e-13 0)
)
;

boundaryField
{
    sides1
    {
        type            zeroGradient;
    }
    sides2
    {
        type            zeroGradient;
    }
    empty
    {
        type            empty;
    }
}


// ************************************************************************* //
