/*--------------------------------*- C++ -*----------------------------------*\
| =========                 |                                                 |
| \\      /  F ield         | OpenFOAM: The Open Source CFD Toolbox           |
|  \\    /   O peration     | Version:  3.0.0                                 |
|   \\  /    A nd           | Web:      www.OpenFOAM.org                      |
|    \\/     M anipulation  |                                                 |
\*---------------------------------------------------------------------------*/
FoamFile
{
    version     2.0;
    format      ascii;
    class       surfaceScalarField;
    location    "0.0001";
    object      phi;
}
// * * * * * * * * * * * * * * * * * * * * * * * * * * * * * * * * * * * * * //

dimensions      [1 0 -1 0 0 0 0];

internalField   nonuniform List<scalar> 
1890
(
-3.46945e-18
5.20417e-18
-3.46945e-18
1.04083e-17
-3.81639e-17
-2.08167e-17
-6.93889e-17
-8.67362e-18
-1.11022e-16
1.04083e-17
-1.04083e-16
2.25514e-17
-7.97973e-17
1.73472e-17
9.02056e-17
2.94903e-17
1.70003e-16
-6.93889e-18
2.22045e-16
-6.93889e-18
2.04697e-16
-4.68375e-17
1.31839e-16
-5.0307e-17
1.45717e-16
-8.67362e-17
1.31839e-16
-9.88792e-17
-1.04083e-17
-1.30104e-16
-3.1225e-17
-1.17961e-16
-6.245e-17
-1.19696e-16
-1.59595e-16
-1.26635e-16
-1.49186e-16
-7.45931e-17
1.70003e-16
-8.50015e-17
2.04697e-15
-1.2837e-16
1.59144e-14
-9.88792e-17
1.21795e-13
-6.07153e-17
9.14758e-13
-1.73472e-17
6.30826e-12
-2.42861e-17
3.90726e-11
-2.25514e-17
2.19652e-10
-2.74086e-16
1.16171e-09
-7.21645e-16
5.87877e-09
1.10675e-15
2.84992e-08
-5.20417e-17
1.32167e-07
-1.8336e-15
5.85149e-07
2.24647e-15
2.46734e-06
-3.79904e-16
9.88187e-06
-5.15213e-16
3.74686e-05
1.52534e-14
0.000133869
2.40415e-14
0.000442747
1.64764e-14
0.00128783
-1.05246e-14
0.00260559
5.71192e-14
0.00377732
9.9646e-14
0.00501222
-1.0509e-13
0.00621995
-1.47812e-13
0.00733878
-2.56514e-13
0.00832615
-1.88716e-13
0.0091621
-4.39613e-13
0.00984277
4.21471e-13
0.0103708
-2.30237e-12
0.0107602
2.64692e-12
0.0110115
-2.17666e-12
0.0111623
-4.10376e-12
0.0111673
1.22769e-12
0.0111127
1.10391e-12
0.0110057
-4.87379e-12
0.0108439
-4.09212e-12
0.0105851
-6.63557e-12
0.0102587
5.35219e-13
0.0098683
-1.48101e-12
0.00943119
-4.14563e-13
0.00899741
7.69866e-14
0.00858772
-5.97322e-14
0.00823925
-6.98594e-13
0.00794267
-3.22063e-13
0.00769014
9.90838e-13
0.00740087
3.66922e-12
0.00685206
4.14201e-12
0.00480718
7.33833e-12
0.00135653
3.414e-12
0.000299746
1.45716e-12
4.89922e-05
2.22998e-13
5.55798e-06
3.28717e-14
5.81826e-07
4.29236e-15
6.11099e-08
3.41957e-16
6.42079e-09
3.1225e-17
6.74505e-10
2.66714e-17
7.07541e-11
1.43115e-17
7.33494e-12
1.10589e-17
7.2666e-13
-6.50521e-19
6.71325e-14
4.98733e-18
5.84949e-15
1.30104e-18
5.08924e-16
6.50521e-19
4.55365e-17
1.51788e-18
6.93889e-18
-2.1684e-19
-1.95156e-18
-2.1684e-18
1.0842e-18
-1.95156e-18
-2.38524e-18
-1.73472e-18
-3.68629e-18
-8.67362e-19
2.1684e-18
-1.0842e-18
-1.0842e-18
-6.50521e-19
3.25261e-18
2.60209e-18
-6.50521e-18
-1.95156e-18
8.67362e-19
1.30104e-18
1.51788e-18
4.77049e-18
-7.37257e-18
1.30104e-18
6.50521e-19
5.20417e-18
1.95156e-18
4.33681e-18
-6.50521e-19
9.32414e-18
3.68629e-18
6.28837e-18
7.15573e-18
9.32414e-18
-3.90313e-18
5.20417e-18
9.97466e-18
1.38778e-17
-6.245e-17
-6.245e-17
-6.245e-17
3.46945e-17
-5.72459e-17
-3.46945e-18
-7.97973e-17
-4.85723e-17
-7.80626e-17
-5.20417e-17
-7.97973e-17
3.46945e-18
-6.07153e-17
6.93889e-18
-5.89806e-17
-3.1225e-17
-7.28584e-17
2.08167e-17
-1.9082e-17
5.55112e-17
-5.89806e-17
-4.51028e-17
-6.245e-17
-2.77556e-17
-8.50015e-17
-3.46945e-18
-5.0307e-17
-4.51028e-17
-1.00614e-16
-3.1225e-17
-6.76542e-17
-1.73472e-17
-1.05818e-16
6.93889e-18
-1.00614e-16
3.46945e-17
-6.07153e-17
1.63064e-16
-6.59195e-17
2.01228e-15
-5.55112e-17
1.59629e-14
-6.93889e-17
1.21993e-13
-2.42861e-17
9.14921e-13
-4.16334e-17
6.3083e-12
1.56125e-17
3.90726e-11
1.73472e-18
2.19651e-10
1.71738e-16
1.1617e-09
-2.77556e-17
5.87877e-09
-1.43462e-15
2.84992e-08
1.00267e-15
1.32167e-07
-6.93889e-17
5.85149e-07
-7.40727e-16
2.46734e-06
4.61436e-16
9.88187e-06
-3.23526e-15
3.74686e-05
-5.22152e-16
0.000133869
-3.72515e-14
0.000442747
-1.00562e-14
0.00128783
-1.72241e-13
0.00260559
1.48926e-13
0.00377732
1.16616e-13
0.00501222
1.50467e-13
0.00621995
3.43086e-13
0.00733878
1.62234e-13
0.00832615
-1.04645e-13
0.0091621
-4.0789e-13
0.00984277
-3.42682e-13
0.0103708
-1.60816e-12
0.0107602
6.70842e-13
0.0110115
-3.32926e-12
0.0111623
-1.12501e-12
0.0111673
-8.45727e-13
0.0111127
2.21664e-12
0.0110057
-3.30183e-12
0.0108439
-1.41904e-12
0.0105851
-2.54437e-12
0.0102587
-2.15727e-12
0.0098683
-1.36627e-12
0.00943119
1.67328e-12
0.00899741
1.06189e-12
0.00858772
1.23611e-12
0.00823925
2.28998e-12
0.00794267
3.75943e-12
0.00769014
4.36998e-12
0.00740087
3.70599e-12
0.00685206
8.08297e-12
0.00480718
1.25665e-11
0.00135653
7.6442e-12
0.000299746
1.26183e-12
4.89922e-05
2.08625e-13
5.55798e-06
6.31032e-14
5.81826e-07
5.54721e-15
6.11099e-08
4.33681e-16
6.42079e-09
9.60603e-17
6.74505e-10
1.66967e-17
7.0754e-11
2.97071e-17
7.33493e-12
6.72205e-18
7.26661e-13
4.77049e-18
6.71275e-14
2.1684e-18
5.8471e-15
1.30104e-18
5.09141e-16
1.30104e-18
4.57533e-17
1.0842e-18
4.11997e-18
6.50521e-19
-4.33681e-18
2.1684e-18
1.73472e-18
4.11997e-18
-3.03577e-18
4.33681e-19
-3.90313e-18
-1.30104e-18
9.75782e-18
-8.67362e-19
4.77049e-18
0
-5.85469e-18
-2.81893e-18
9.1073e-18
1.30104e-18
1.53957e-17
-3.68629e-18
4.77049e-18
-4.33681e-18
1.95156e-18
-6.07153e-18
9.32414e-18
-3.03577e-18
1.75641e-17
-2.60209e-18
6.50521e-19
-1.51788e-18
-6.28837e-18
-3.90313e-18
3.68629e-18
8.0231e-18
2.1684e-19
-2.38524e-18
-3.90313e-18
-2.77556e-17
-5.20417e-17
-5.20417e-17
-2.25514e-17
-8.67362e-17
-8.50015e-17
3.46945e-18
-8.67362e-18
-9.02056e-17
-8.50015e-17
-3.46945e-18
-5.20417e-18
-6.93889e-17
-5.55112e-17
-1.38778e-17
-2.25514e-17
5.89806e-17
-3.29597e-17
8.67362e-17
-8.67362e-18
1.00614e-16
2.25514e-17
6.93889e-18
-1.73472e-17
1.04083e-17
6.93889e-18
-2.77556e-17
-1.21431e-17
1.04083e-17
-8.67362e-18
-5.20417e-17
-8.67362e-18
-4.51028e-17
-1.73472e-18
4.85723e-17
1.73472e-17
1.04083e-17
-3.1225e-17
2.22045e-16
2.42861e-17
2.0331e-15
-2.60209e-17
1.60011e-14
1.73472e-17
1.22027e-13
-2.42861e-17
9.14831e-13
-3.46945e-18
6.30852e-12
-8.32667e-17
3.90733e-11
-1.23165e-16
2.19653e-10
-4.0766e-16
1.16171e-09
-3.86843e-16
5.87877e-09
-4.77049e-16
2.84992e-08
7.45931e-17
1.32167e-07
3.62557e-16
5.85149e-07
-8.70831e-16
2.46734e-06
-7.40727e-16
9.88187e-06
1.33574e-16
3.74686e-05
-1.38882e-14
0.000133869
-4.16681e-15
0.000442747
-8.3232e-14
0.00128783
3.20785e-14
0.00260559
-2.2626e-14
0.00377732
2.07242e-13
0.00501222
2.63115e-13
0.00621995
2.10329e-13
0.00733878
-3.81266e-14
0.00832615
-2.29465e-13
0.0091621
-6.51224e-13
0.00984277
-7.27362e-13
0.0103708
-7.41269e-13
0.0107602
-8.62041e-13
0.0110115
-1.73804e-12
0.0111623
-1.18658e-13
0.0111673
-2.72746e-14
0.0111127
-1.6995e-12
0.0110057
6.98251e-13
0.0108439
-4.06245e-13
0.0105851
1.9834e-12
0.0102587
-4.34888e-12
0.0098683
-3.6301e-12
0.00943119
-1.44824e-12
0.00899741
-1.64381e-12
0.00858772
-6.11624e-13
0.00823925
1.14126e-12
0.00794267
3.06299e-12
0.00769014
3.95702e-12
0.00740087
2.38627e-12
0.00685206
4.47302e-13
0.00480718
-6.46219e-12
0.00135653
-4.63789e-12
0.000299746
-2.46569e-12
4.89922e-05
-2.23543e-13
5.55798e-06
-5.81672e-14
5.81826e-07
-3.31332e-15
6.11099e-08
-5.0307e-17
6.42079e-09
-3.03577e-17
6.74505e-10
-1.6263e-17
7.0754e-11
-2.42861e-17
7.33489e-12
4.11997e-18
7.26653e-13
-1.17094e-17
6.71247e-14
7.15573e-18
5.8458e-15
-1.30104e-18
5.17164e-16
7.37257e-18
3.90313e-17
2.38524e-18
8.0231e-18
7.58942e-18
-3.46945e-18
5.85469e-18
-9.97466e-18
4.77049e-18
1.30104e-18
6.72205e-18
-4.11997e-18
6.28837e-18
1.0842e-18
4.77049e-18
6.50521e-19
6.93889e-18
0
0
-9.97466e-18
3.90313e-18
-6.93889e-18
1.30104e-18
-4.77049e-18
1.73472e-18
1.0842e-18
1.95156e-18
1.51788e-17
-4.33681e-19
1.97325e-17
3.25261e-18
4.55365e-18
-4.33681e-18
2.05998e-17
-2.1684e-19
8.0231e-18
-5.20417e-18
1.95156e-18
-6.50521e-19
-3.68629e-18
-2.77556e-17
-5.89806e-17
-1.00614e-16
-3.46945e-18
-2.08167e-17
-1.38778e-17
-9.36751e-17
3.46945e-18
-6.93889e-18
-1.56125e-17
0
-1.9082e-17
2.08167e-17
-1.56125e-17
1.04083e-16
-3.46945e-17
1.66533e-16
3.46945e-18
0
-5.20417e-17
2.77556e-17
1.56125e-17
1.38778e-17
-1.9082e-17
-4.51028e-17
0
1.73472e-17
-2.25514e-17
5.89806e-17
1.38778e-17
-1.73472e-17
6.93889e-18
-7.28584e-17
-3.46945e-18
-1.38778e-17
2.08167e-17
6.59195e-17
0
2.11636e-16
-8.67362e-18
2.01575e-15
-2.25514e-17
1.59595e-14
1.04083e-17
1.21937e-13
-2.25514e-17
9.14952e-13
-8.50015e-17
6.30804e-12
3.46945e-18
3.90722e-11
-8.67362e-17
2.19651e-10
-2.23779e-16
1.1617e-09
-3.29597e-16
5.87877e-09
-3.01842e-16
2.84992e-08
-1.04083e-17
1.32167e-07
-8.06646e-16
5.85149e-07
1.15359e-15
2.46734e-06
1.9082e-16
9.88187e-06
2.18922e-15
3.74686e-05
7.18869e-15
0.000133869
5.60489e-15
0.000442747
5.11587e-14
0.00128783
1.03979e-13
0.00260559
1.36627e-14
0.00377732
-1.86096e-13
0.00501222
-1.82042e-13
0.00621995
-2.86906e-13
0.00733878
-4.47216e-13
0.00832615
-3.31145e-13
0.0091621
-6.82006e-13
0.00984277
-3.16116e-13
0.0103708
-2.34849e-13
0.0107602
7.94894e-14
0.0110115
-7.11812e-13
0.0111623
1.82103e-12
0.0111673
-1.72767e-12
0.0111127
-1.93503e-12
0.0110057
-5.63491e-13
0.0108439
6.31277e-13
0.0105851
2.32442e-13
0.0102587
3.18886e-15
0.0098683
-7.45725e-13
0.00943119
-2.27281e-12
0.00899741
-9.75958e-13
0.00858772
-1.16012e-12
0.00823925
-1.59754e-12
0.00794267
-2.34675e-12
0.00769014
-3.14683e-12
0.00740087
-2.70132e-12
0.00685206
-1.475e-12
0.00480718
-8.2452e-13
0.00135653
-5.68021e-13
0.000299746
1.11496e-12
4.89922e-05
-1.78763e-14
5.55798e-06
3.47886e-14
5.81826e-07
4.49619e-15
6.11099e-08
3.90746e-16
6.42079e-09
-3.31766e-17
6.74505e-10
4.6187e-17
7.0754e-11
-3.29597e-17
7.33495e-12
-2.68882e-17
7.26654e-13
1.51788e-18
6.71217e-14
4.11997e-18
5.85317e-15
1.12757e-17
5.1131e-16
7.80626e-18
5.59448e-17
5.85469e-18
4.77049e-18
7.37257e-18
-9.54098e-18
5.20417e-18
-1.0842e-18
8.0231e-18
-1.06252e-17
9.97466e-18
-1.25767e-17
7.80626e-18
2.81893e-18
8.45678e-18
-5.85469e-18
4.98733e-18
3.68629e-18
6.50521e-18
-1.51788e-18
3.90313e-18
4.77049e-18
6.72205e-18
-3.03577e-18
4.77049e-18
-7.58942e-18
3.90313e-18
1.30104e-17
4.11997e-18
1.21431e-17
3.68629e-18
5.63785e-18
-1.0842e-18
4.98733e-18
0
1.30104e-18
-2.60209e-18
-9.75782e-18
-6.50521e-19
-1.95156e-18
8.32667e-17
2.42861e-17
-1.04083e-17
2.08167e-17
3.46945e-17
1.21431e-17
-4.51028e-17
-3.46945e-18
-1.38778e-17
3.46945e-18
-6.59195e-17
-6.93889e-18
-4.51028e-17
-1.21431e-17
9.02056e-17
-6.93889e-18
1.04083e-16
3.64292e-17
1.42247e-16
-2.25514e-17
2.08167e-17
6.93889e-18
5.89806e-17
-1.56125e-17
4.16334e-17
-2.94903e-17
-5.55112e-17
-2.08167e-17
-1.38778e-17
-3.46945e-18
3.46945e-18
-1.73472e-18
1.73472e-17
-6.93889e-18
-3.46945e-18
5.20417e-18
-3.46945e-18
2.60209e-17
1.56125e-16
-8.67362e-18
1.97065e-15
3.46945e-18
1.59803e-14
-3.29597e-17
1.21875e-13
-3.1225e-17
9.14845e-13
1.73472e-18
6.30814e-12
-2.77556e-17
3.90718e-11
-2.77556e-17
2.19651e-10
-8.84709e-17
1.1617e-09
-8.50015e-17
5.87877e-09
1.80411e-16
2.84992e-08
-3.76435e-16
1.32167e-07
9.88792e-17
5.85149e-07
2.94903e-16
2.46734e-06
5.01335e-16
9.88187e-06
3.38618e-15
3.74686e-05
7.91728e-15
0.000133869
2.35541e-14
0.000442747
5.61374e-14
0.00128783
5.95617e-14
0.00260559
1.87437e-13
0.00377732
1.17927e-14
0.00501222
-2.17511e-13
0.00621995
-4.1923e-13
0.00733878
-4.78974e-13
0.00832615
-6.96785e-13
0.0091621
-4.25594e-13
0.00984277
-1.16441e-13
0.0103708
-5.01735e-13
0.0107602
5.03898e-13
0.0110115
-1.15864e-12
0.0111623
-1.01837e-12
0.0111673
-1.77009e-13
0.0111127
9.96794e-13
0.0110057
-6.43109e-13
0.0108439
-7.78799e-13
0.0105851
-2.26369e-12
0.0102587
1.08204e-12
0.0098683
1.47989e-12
0.00943119
2.3257e-12
0.00899741
2.37088e-12
0.00858772
2.16817e-12
0.00823925
1.50942e-12
0.00794267
-7.45579e-13
0.00769014
-2.78284e-12
0.00740087
-2.62593e-12
0.00685206
-3.86791e-12
0.00480718
-3.26108e-12
0.00135653
-6.58087e-12
0.000299746
-1.57399e-12
4.89922e-05
-3.49013e-13
5.55798e-06
-1.89045e-13
5.81826e-07
-2.43132e-14
6.11099e-08
-2.02442e-15
6.42079e-09
-9.7795e-17
6.74505e-10
-3.05745e-17
7.07541e-11
-1.64799e-17
7.335e-12
-3.25261e-18
7.26671e-13
8.89046e-18
6.71338e-14
2.1684e-18
5.85144e-15
6.93889e-18
5.13478e-16
-2.1684e-19
5.05238e-17
4.98733e-18
4.77049e-18
3.68629e-18
1.30104e-18
1.95156e-18
3.25261e-18
6.50521e-18
-3.90313e-18
6.50521e-19
-6.28837e-18
1.73472e-18
-1.30104e-18
8.23994e-18
-9.75782e-18
4.98733e-18
-4.77049e-18
7.80626e-18
-1.30104e-18
4.11997e-18
-7.37257e-18
4.77049e-18
-1.06252e-17
3.25261e-18
0
1.73472e-18
4.33681e-18
0
-2.60209e-18
2.81893e-18
-1.73472e-18
0
2.38524e-18
-1.51788e-18
9.1073e-18
6.50521e-19
-6.28837e-18
-1.51788e-18
1.30104e-18
3.1225e-17
6.59195e-17
-8.67362e-17
-2.77556e-17
-7.97973e-17
5.89806e-17
-7.28584e-17
-1.9082e-17
-5.89806e-17
5.20417e-17
-1.17961e-16
1.73472e-18
-3.1225e-17
2.42861e-17
1.249e-16
8.67362e-18
7.97973e-17
0
1.31839e-16
1.04083e-17
-2.77556e-17
-5.20417e-18
-6.59195e-17
1.38778e-17
9.36751e-17
-1.56125e-17
3.81639e-17
6.93889e-18
2.42861e-17
-3.46945e-18
1.73472e-17
-1.73472e-17
3.46945e-17
-1.04083e-17
1.38778e-17
-8.67362e-18
-4.16334e-17
-2.08167e-17
1.9082e-16
-3.1225e-17
2.0435e-15
1.73472e-17
1.59629e-14
-2.42861e-17
1.21826e-13
-2.25514e-17
9.14924e-13
1.73472e-18
6.30806e-12
-1.38778e-17
3.90719e-11
-2.77556e-17
2.19651e-10
2.42861e-17
1.16171e-09
6.93889e-17
5.87877e-09
1.01828e-15
2.84992e-08
-1.49707e-15
1.32167e-07
9.08995e-16
5.85149e-07
-1.40513e-16
2.46734e-06
-6.76542e-16
9.88187e-06
-9.12465e-16
3.74686e-05
-1.29636e-14
0.000133869
-3.53016e-15
0.000442747
-1.02467e-13
0.00128783
-2.08947e-14
0.00260559
-3.66634e-14
0.00377732
2.09522e-13
0.00501222
2.884e-13
0.00621995
4.73967e-13
0.00733878
4.11879e-13
0.00832615
2.60853e-13
0.0091621
1.67371e-13
0.00984277
1.25623e-13
0.0103708
5.04619e-13
0.0107602
1.93068e-13
0.0110115
5.04787e-13
0.0111623
4.82918e-13
0.0111673
3.92059e-12
0.0111127
2.21251e-13
0.0110057
1.22908e-12
0.0108439
6.24699e-13
0.0105851
6.9164e-13
0.0102587
5.18115e-13
0.0098683
1.95264e-12
0.00943119
4.06955e-12
0.00899741
3.2926e-12
0.00858772
4.10774e-12
0.00823925
5.13677e-12
0.00794267
5.28878e-12
0.00769014
5.02425e-12
0.00740087
4.98927e-12
0.00685206
1.28271e-12
0.00480718
3.54639e-12
0.00135653
3.4643e-12
0.000299746
-5.29765e-13
4.89922e-05
-5.35635e-14
5.55798e-06
-9.74286e-15
5.81826e-07
-1.17094e-15
6.11099e-08
-8.23994e-17
6.42079e-09
1.64799e-17
6.74505e-10
4.03323e-17
7.07541e-11
1.75641e-17
7.335e-12
9.97466e-18
7.26676e-13
8.67362e-19
6.71331e-14
6.50521e-19
5.84862e-15
6.50521e-19
5.17815e-16
-7.15573e-18
5.55112e-17
8.67362e-19
7.15573e-18
-4.11997e-18
2.81893e-18
-3.90313e-18
2.38524e-18
-5.85469e-18
-1.95156e-18
-8.89046e-18
-6.50521e-18
-5.20417e-18
-8.45678e-18
-6.07153e-18
-1.21431e-17
-3.90313e-18
4.33681e-19
-4.77049e-18
-3.68629e-18
-2.1684e-18
-5.63785e-18
-4.77049e-18
-1.04083e-17
-3.25261e-18
-7.37257e-18
-1.95156e-18
8.0231e-18
-1.0842e-18
-4.98733e-18
-1.51788e-18
4.33681e-19
1.0842e-18
2.60209e-18
-6.50521e-19
2.38524e-18
2.81893e-18
1.95156e-18
-1.30104e-18
1.30104e-18
-5.89806e-17
1.38778e-17
-5.89806e-17
-1.21431e-17
-1.07553e-16
7.45931e-17
-1.45717e-16
1.56125e-17
-9.36751e-17
7.11237e-17
-1.04083e-16
1.04083e-17
3.1225e-17
6.41848e-17
1.38778e-16
5.89806e-17
9.02056e-17
1.73472e-17
1.35308e-16
2.77556e-17
-2.08167e-17
-1.56125e-17
-5.55112e-17
3.29597e-17
7.63278e-17
6.93889e-18
3.81639e-17
-8.67362e-18
1.73472e-17
-6.93889e-18
3.46945e-18
3.46945e-18
-6.93889e-18
-1.56125e-17
-7.63278e-17
-3.29597e-17
-3.46945e-17
1.38778e-17
2.35922e-16
-8.67362e-18
1.93248e-15
2.60209e-17
1.5838e-14
1.38778e-17
1.21934e-13
3.98986e-17
9.14893e-13
4.85723e-17
6.308e-12
2.77556e-17
3.90713e-11
4.90927e-16
2.1965e-10
7.35523e-16
1.16171e-09
-2.37657e-16
5.87877e-09
-1.0044e-15
2.84992e-08
2.12157e-15
1.32167e-07
-1.00614e-15
5.85149e-07
2.58474e-16
2.46734e-06
1.44849e-15
9.88187e-06
-6.29358e-15
3.74686e-05
-1.05471e-15
0.000133869
-4.17114e-14
0.000442747
-1.05818e-14
0.00128783
-2.25046e-14
0.00260559
3.10894e-13
0.00377732
5.92724e-13
0.00501222
6.14293e-13
0.00621995
1.04187e-12
0.00733878
1.12621e-12
0.00832615
1.07186e-12
0.0091621
1.09883e-12
0.00984277
9.37319e-13
0.0103708
1.64397e-12
0.0107602
1.44496e-12
0.0110115
2.07196e-12
0.0111623
2.9698e-12
0.0111673
2.29702e-12
0.0111127
7.6821e-13
0.0110057
1.51385e-12
0.0108439
2.51703e-12
0.0105851
2.89209e-12
0.0102587
8.16437e-13
0.0098683
4.89568e-13
0.00943119
3.54341e-13
0.00899741
1.05074e-12
0.00858772
1.65548e-12
0.00823925
2.55869e-12
0.00794267
3.20016e-12
0.00769014
5.72558e-12
0.00740087
6.73703e-12
0.00685206
7.3583e-12
0.00480718
4.16307e-12
0.00135653
2.69733e-12
0.000299746
1.61025e-12
4.89922e-05
1.36594e-13
5.55798e-06
1.01518e-14
5.81826e-07
2.67776e-15
6.11099e-08
2.61726e-16
6.42079e-09
4.05492e-17
6.74505e-10
3.31766e-17
7.07541e-11
3.10082e-17
7.335e-12
3.59955e-17
7.26672e-13
4.11997e-18
6.71325e-14
-8.0231e-18
5.84732e-15
-9.54098e-18
5.13044e-16
-1.01915e-17
3.96818e-17
-8.0231e-18
-6.07153e-18
-1.17094e-17
-1.14925e-17
-5.42101e-18
-9.75782e-18
-8.23994e-18
4.11997e-18
-9.32414e-18
7.37257e-18
-8.89046e-18
3.90313e-18
-1.01915e-17
-6.07153e-18
-9.54098e-18
-4.55365e-18
-7.80626e-18
-2.1684e-18
-3.68629e-18
-6.07153e-18
-7.37257e-18
-1.01915e-17
-4.33681e-18
-2.1684e-18
-1.73472e-18
4.11997e-18
-8.67362e-19
-4.77049e-18
-1.73472e-18
1.73472e-18
3.03577e-18
7.58942e-18
4.33681e-19
-1.30104e-18
2.38524e-18
1.95156e-18
3.03577e-18
4.11997e-18
-5.20417e-17
3.29597e-17
1.38778e-17
6.76542e-17
-6.93889e-17
4.68375e-17
-5.55112e-17
7.11237e-17
-9.71445e-17
5.72459e-17
-1.04083e-17
9.88792e-17
-4.16334e-17
9.19403e-17
-3.46945e-18
7.45931e-17
2.42861e-17
7.11237e-17
8.32667e-17
4.85723e-17
9.36751e-17
2.60209e-17
-2.08167e-17
6.41848e-17
-1.38778e-17
4.33681e-17
-3.46945e-18
2.42861e-17
-1.38778e-17
6.41848e-17
-4.16334e-17
2.08167e-17
1.04083e-17
5.55112e-17
5.20417e-17
4.85723e-17
1.04083e-17
4.85723e-17
2.60209e-16
8.50015e-17
2.02269e-15
3.46945e-17
1.59872e-14
9.02056e-17
1.22041e-13
1.9082e-17
9.14883e-13
8.50015e-17
6.30856e-12
4.33681e-17
3.90735e-11
1.21431e-17
2.19653e-10
-2.61943e-16
1.16171e-09
-1.82146e-16
5.87877e-09
4.3715e-16
2.84992e-08
1.66533e-16
1.32167e-07
9.36751e-17
5.85149e-07
1.82666e-15
2.46734e-06
1.80411e-16
9.88187e-06
3.22659e-15
3.74686e-05
8.20871e-15
0.000133869
2.91676e-14
0.000442747
8.46805e-14
0.00128783
2.04625e-13
0.00260559
4.25016e-13
0.00377732
5.09506e-13
0.00501222
6.67123e-13
0.00621995
7.58154e-13
0.00733878
1.05326e-12
0.00832615
1.38433e-12
0.0091621
1.59512e-12
0.00984277
2.07433e-12
0.0103708
1.65725e-12
0.0107602
3.70663e-12
0.0110115
1.78911e-12
0.0111623
1.13218e-12
0.0111673
2.51983e-12
0.0111127
2.3511e-12
0.0110057
-3.74277e-12
0.0108439
-9.14107e-13
0.0105851
-1.41519e-12
0.0102587
7.52551e-13
0.0098683
-5.99577e-14
0.00943119
3.73161e-13
0.00899741
1.98e-12
0.00858772
2.64065e-12
0.00823925
3.71603e-12
0.00794267
6.78372e-12
0.00769014
1.00417e-11
0.00740087
1.38364e-11
0.00685206
1.80425e-11
0.00480718
1.45272e-11
0.00135653
6.96992e-12
0.000299746
1.98159e-12
4.89922e-05
2.94507e-13
5.55798e-06
7.0338e-14
5.81826e-07
5.19029e-15
6.11099e-08
3.79471e-16
6.42079e-09
4.66207e-17
6.74505e-10
-7.80626e-18
7.07539e-11
-1.43115e-17
7.33488e-12
-4.33681e-18
7.26648e-13
-1.34441e-17
6.71245e-14
-1.51788e-18
5.84363e-15
-3.90313e-18
5.10442e-16
-1.51788e-18
4.40186e-17
-5.20417e-18
1.17094e-17
-5.63785e-18
-3.25261e-18
-6.07153e-18
-8.89046e-18
-4.33681e-18
4.11997e-18
-1.0842e-18
-6.28837e-18
-3.25261e-18
-2.81893e-18
-2.1684e-19
-8.67362e-19
-5.42101e-18
1.04083e-17
1.0842e-18
-1.01915e-17
-3.25261e-18
-6.93889e-18
1.0842e-18
3.46945e-18
3.46945e-18
1.51788e-18
1.95156e-18
1.17094e-17
2.38524e-18
1.27936e-17
2.1684e-18
9.32414e-18
4.11997e-18
1.27936e-17
4.98733e-18
6.50521e-18
-4.55365e-18
1.17094e-17
2.81893e-18
-3.68629e-18
4.16334e-17
4.68375e-17
6.59195e-17
7.11237e-17
-3.46945e-18
1.73472e-17
-2.42861e-17
4.68375e-17
-3.46945e-18
3.1225e-17
-6.59195e-17
-3.64292e-17
-3.81639e-17
3.64292e-17
-2.08167e-17
2.60209e-17
-1.14492e-16
4.85723e-17
-1.73472e-17
5.72459e-17
2.08167e-17
5.72459e-17
-9.36751e-17
4.51028e-17
-1.04083e-17
7.80626e-17
6.93889e-18
6.93889e-17
-2.42861e-17
8.1532e-17
-6.245e-17
1.04083e-16
1.38778e-17
1.17961e-16
9.71445e-17
1.2837e-16
9.71445e-17
7.80626e-17
1.73472e-16
7.11237e-17
1.94983e-15
8.1532e-17
1.5956e-14
6.93889e-17
1.22031e-13
8.1532e-17
9.15001e-13
6.41848e-17
6.30848e-12
5.55112e-17
3.90731e-11
-1.47451e-16
2.1965e-10
2.60209e-17
1.1617e-09
3.48679e-16
5.87877e-09
-3.26128e-16
2.84992e-08
-1.12757e-15
1.32167e-07
3.36016e-15
5.85149e-07
-2.49106e-15
2.46734e-06
3.30985e-15
9.88187e-06
7.91034e-15
3.74686e-05
1.58727e-14
0.000133869
6.55084e-14
0.000442747
1.40887e-13
0.00128783
3.65695e-13
0.00260559
9.08164e-13
0.00377732
8.7373e-13
0.00501222
5.90723e-13
0.00621995
6.55228e-13
0.00733878
7.87926e-13
0.00832615
1.02467e-12
0.0091621
1.24574e-12
0.00984277
1.9917e-12
0.0103708
1.26421e-12
0.0107602
3.98683e-12
0.0110115
1.21516e-12
0.0111623
-1.62272e-13
0.0111673
2.18256e-12
0.0111127
3.16018e-12
0.0110057
-2.85498e-12
0.0108439
-2.21314e-12
0.0105851
-4.63289e-12
0.0102587
5.12515e-14
0.0098683
-1.07343e-12
0.00943119
-8.26452e-13
0.00899741
9.99044e-13
0.00858772
1.7773e-12
0.00823925
2.39162e-12
0.00794267
3.79592e-12
0.00769014
6.59685e-12
0.00740087
8.86226e-12
0.00685206
1.38801e-11
0.00480718
1.91013e-11
0.00135653
1.428e-11
0.000299746
1.37811e-12
4.89922e-05
4.86016e-13
5.55798e-06
1.10671e-14
5.81826e-07
1.37477e-16
6.11099e-08
7.80626e-18
6.42079e-09
9.1073e-18
6.74505e-10
-1.23599e-17
7.0754e-11
-1.10589e-17
7.33493e-12
-1.66967e-17
7.26664e-13
-2.1684e-19
6.7123e-14
-6.50521e-19
5.83951e-15
-1.73472e-18
5.00468e-16
-2.81893e-18
4.03323e-17
2.1684e-18
2.1684e-18
-4.33681e-19
-3.68629e-18
4.33681e-19
-1.51788e-18
8.67362e-19
3.25261e-18
1.73472e-18
-3.68629e-18
-2.1684e-19
5.42101e-18
2.1684e-18
1.21431e-17
-1.30104e-18
9.97466e-18
-8.67362e-19
5.63785e-18
-8.67362e-19
1.38778e-17
-2.81893e-18
6.93889e-18
-3.68629e-18
0
-5.42101e-18
4.33681e-19
-4.33681e-18
1.14925e-17
-4.98733e-18
1.73472e-18
-9.97466e-18
-6.72205e-18
-6.72205e-18
-4.33681e-19
-1.23599e-17
1.73472e-18
-5.85469e-18
-1.06252e-17
6.93889e-18
-7.63278e-17
-8.32667e-17
-9.36751e-17
-1.14492e-16
7.28584e-17
-1.73472e-17
1.04083e-17
4.16334e-17
8.32667e-17
1.07553e-16
2.08167e-17
6.245e-17
8.67362e-17
6.245e-17
-1.73472e-17
-3.46945e-17
-1.38778e-17
1.38778e-17
2.60209e-16
2.07473e-15
1.59005e-14
1.21896e-13
9.14803e-13
6.30813e-12
3.90723e-11
2.19652e-10
1.16171e-09
5.87877e-09
2.84992e-08
1.32167e-07
5.85149e-07
2.46734e-06
9.88187e-06
3.74686e-05
0.000133869
0.000442747
0.00128783
0.00260559
0.00377732
0.00501222
0.00621995
0.00733878
0.00832615
0.0091621
0.00984277
0.0103708
0.0107602
0.0110115
0.0111623
0.0111673
0.0111127
0.0110057
0.0108439
0.0105851
0.0102587
0.0098683
0.00943119
0.00899741
0.00858772
0.00823925
0.00794267
0.00769014
0.00740087
0.00685206
0.00480718
0.00135653
0.000299746
4.89922e-05
5.55798e-06
5.81826e-07
6.11099e-08
6.42079e-09
6.74505e-10
7.0754e-11
7.33495e-12
7.26662e-13
6.71243e-14
5.84558e-15
5.10009e-16
4.42354e-17
6.07153e-18
2.1684e-19
-3.03577e-18
0
-1.30104e-18
-3.25261e-18
3.68629e-18
3.90313e-18
-4.55365e-18
-3.46945e-18
-2.1684e-18
-6.50521e-19
-1.51788e-18
3.25261e-18
6.50521e-19
1.73472e-18
9.97466e-18
3.25261e-18
)
;

boundaryField
{
    sides1
    {
        type            calculated;
        value           nonuniform List<scalar> 
20
(
-9.54098e-18
-2.81893e-18
5.85469e-18
-5.85469e-18
-7.58942e-18
1.06252e-17
4.77049e-18
1.97325e-17
-6.50521e-19
-3.68629e-18
6.93889e-18
-5.20417e-17
4.51028e-17
-1.73472e-17
-1.38778e-16
-1.17961e-16
3.46945e-17
1.2837e-16
-6.93889e-17
-1.73472e-17
)
;
    }
    sides2
    {
        type            calculated;
        value           nonuniform List<scalar> 
200
(
-1.56125e-17
-2.42861e-17
0
-2.77556e-17
-5.20417e-18
-3.1225e-17
-2.42861e-17
-6.41848e-17
-3.46945e-17
-1.04083e-17
2.42861e-17
1.9082e-17
5.89806e-17
9.54098e-17
7.45931e-17
1.14492e-16
7.63278e-17
1.02349e-16
6.41848e-17
5.0307e-17
6.41848e-17
7.97973e-17
6.59195e-17
5.0307e-17
1.38778e-17
3.46945e-18
-3.81639e-17
7.14706e-16
2.87964e-16
-1.12757e-16
1.21604e-15
-2.30718e-16
-3.67761e-16
9.83588e-16
-4.7861e-15
-1.17805e-14
-2.21715e-14
-3.9092e-14
-5.69388e-14
-1.04512e-13
-9.15197e-14
-3.81362e-14
3.32451e-14
8.77597e-14
3.28363e-13
-6.099e-13
2.58876e-12
-2.9255e-12
1.45857e-12
1.96625e-12
-4.96421e-14
-7.95826e-13
3.56038e-12
3.48149e-12
5.51082e-12
3.57588e-12
3.53368e-12
3.69154e-12
2.49046e-12
1.67201e-12
1.63389e-12
1.3188e-12
1.32944e-13
-2.23483e-12
-2.24393e-12
-1.83055e-12
-1.15298e-12
-2.78271e-13
-4.31326e-14
-3.50653e-15
-3.93132e-16
-1.14925e-17
-1.10589e-17
-1.10589e-17
-3.03577e-18
-6.50521e-18
2.81893e-18
-2.38524e-18
1.0842e-18
-2.1684e-19
1.51788e-18
0
1.51788e-18
1.0842e-18
4.33681e-19
1.30104e-18
2.1684e-19
0
-1.73472e-18
1.0842e-18
-1.0842e-18
-4.77049e-18
-3.46945e-18
-7.15573e-18
-5.20417e-18
-1.04083e-17
-8.23994e-18
-8.23994e-18
-7.80626e-18
-7.80626e-18
4.33681e-17
2.08167e-17
2.25514e-17
0
0
-2.94903e-17
1.56125e-17
-3.46945e-18
0
2.08167e-17
4.85723e-17
4.68375e-17
6.59195e-17
7.80626e-17
6.41848e-17
1.07553e-16
8.32667e-17
8.67362e-17
6.59195e-17
5.37764e-17
8.67362e-17
7.45931e-17
8.50015e-17
4.51028e-17
5.55112e-17
-1.02349e-16
-5.20417e-17
2.25514e-16
4.52763e-16
-8.01442e-16
1.5838e-15
-3.90313e-16
5.06539e-16
2.84148e-15
4.29171e-15
1.7715e-14
5.20851e-14
1.32439e-13
3.93487e-13
6.56134e-13
7.52701e-13
8.38684e-13
9.49377e-13
1.11162e-12
1.24292e-12
1.88971e-12
8.499e-13
3.74239e-12
1.24211e-12
2.15346e-12
2.42582e-12
4.30372e-12
-1.19518e-12
-6.81812e-13
-2.92002e-12
-1.33429e-12
-1.49797e-12
-9.77887e-13
4.56828e-13
1.25204e-12
2.35582e-12
4.50794e-12
7.4027e-12
9.16659e-12
9.72772e-12
8.36504e-12
3.19781e-12
6.55791e-13
8.58235e-14
4.64689e-16
-5.09575e-17
1.27936e-17
-3.68629e-18
-4.77049e-18
-5.63785e-18
-7.37257e-18
4.33681e-19
-2.60209e-18
-1.95156e-18
-1.51788e-18
4.33681e-19
0
2.1684e-18
1.73472e-18
1.30104e-18
1.0842e-18
1.95156e-18
0
-1.0842e-18
-8.67362e-19
-3.68629e-18
-4.11997e-18
-7.15573e-18
-5.20417e-18
-7.15573e-18
-9.75782e-18
-8.45678e-18
-6.07153e-18
-6.07153e-18
-4.77049e-18
)
;
    }
    empty
    {
        type            empty;
        value           nonuniform 0();
    }
}


// ************************************************************************* //
