/*--------------------------------*- C++ -*----------------------------------*\
| =========                 |                                                 |
| \\      /  F ield         | OpenFOAM: The Open Source CFD Toolbox           |
|  \\    /   O peration     | Version:  3.0.0                                 |
|   \\  /    A nd           | Web:      www.OpenFOAM.org                      |
|    \\/     M anipulation  |                                                 |
\*---------------------------------------------------------------------------*/
FoamFile
{
    version     2.0;
    format      ascii;
    class       volVectorField;
    location    "0.0001";
    object      U;
}
// * * * * * * * * * * * * * * * * * * * * * * * * * * * * * * * * * * * * * //

dimensions      [0 1 -1 0 0 0 0];

internalField   nonuniform List<vector> 
1000
(
(-3.7352e-14 2.98816e-13 0)
(-4.09123e-27 4.52893e-13 0)
(-1.72169e-13 2.04269e-15 0)
(1.70418e-13 5.75454e-13 0)
(-1.24604e-12 1.26355e-13 0)
(-1.08321e-12 6.46656e-13 0)
(-1.04702e-12 4.58729e-13 0)
(-1.99016e-13 1.22649e-12 0)
(1.8641e-12 6.89552e-13 0)
(1.98724e-12 2.42204e-13 0)
(2.4769e-12 -5.37226e-13 0)
(1.31957e-12 -3.68851e-13 0)
(1.15733e-12 -1.14274e-12 0)
(1.53552e-12 -1.8889e-12 0)
(8.49173e-13 -1.48649e-12 0)
(-4.98415e-13 -2.23674e-12 0)
(-1.85009e-13 -1.53493e-12 0)
(-8.91194e-13 -2.07537e-12 0)
(-2.04035e-12 -1.24575e-12 0)
(-4.68067e-13 -9.51016e-13 0)
(4.7758e-12 -1.25129e-12 0)
(3.34283e-11 -1.57316e-12 0)
(2.63223e-10 -1.32716e-12 0)
(2.02413e-09 -9.86325e-13 0)
(1.58499e-08 -2.76638e-13 0)
(1.16525e-07 -1.34234e-14 0)
(7.28104e-07 7.38577e-13 0)
(4.04735e-06 -1.41345e-11 0)
(2.1384e-05 -5.65123e-12 0)
(0.000108254 2.21193e-12 0)
(0.000524974 -2.41215e-11 0)
(0.00243427 4.70288e-12 0)
(0.0107688 7.16499e-12 0)
(0.0453393 -1.93148e-11 0)
(0.181215 9.55302e-11 0)
(0.686222 2.34537e-10 0)
(2.46648 4.39903e-10 0)
(8.75768 7.87836e-10 0)
(22.959 1.19231e-09 0)
(36.6652 2.27975e-09 0)
(52.0657 2.0712e-09 0)
(69.6747 8.99478e-10 0)
(88.9102 -8.74411e-10 0)
(109.216 -2.40206e-09 0)
(130.15 -9.59301e-09 0)
(151.395 1.90724e-08 0)
(172.596 -8.68511e-08 0)
(193.572 1.05238e-07 0)
(213.71 -5.62833e-08 0)
(232.832 -8.1382e-08 0)
(249.956 2.17279e-09 0)
(258.754 3.63949e-08 0)
(264.034 -1.67597e-07 0)
(268.486 -1.68764e-07 0)
(272.523 -2.7661e-07 0)
(272.993 -1.83836e-07 0)
(275.945 -1.90833e-07 0)
(276.897 -2.08565e-07 0)
(278.393 -1.48007e-07 0)
(278.205 -1.04445e-07 0)
(277.87 -1.06542e-07 0)
(276.886 -8.90937e-08 0)
(275.114 -9.4349e-09 0)
(271.982 1.58659e-07 0)
(264.419 1.64127e-07 0)
(240.895 1.469e-07 0)
(155.984 1.24243e-07 0)
(45.3531 4.00651e-08 0)
(8.4231 6.83499e-09 0)
(0.829245 5.70734e-10 0)
(0.0823055 6.45558e-11 0)
(0.00862057 2.03164e-12 0)
(0.000905688 1.78973e-12 0)
(9.51442e-05 1.78376e-12 0)
(9.98633e-06 5.25089e-13 0)
(1.04052e-06 1.0175e-12 0)
(1.01606e-07 -4.76067e-13 0)
(8.76678e-09 3.75105e-13 0)
(7.35267e-10 -1.75224e-13 0)
(6.44944e-11 5.26694e-14 0)
(5.585e-12 -2.09364e-13 0)
(3.30898e-13 -2.05717e-14 0)
(4.53744e-13 -2.16222e-13 0)
(-1.54944e-13 -1.67054e-13 0)
(1.27515e-13 -4.1727e-14 0)
(-6.32032e-13 -2.16805e-13 0)
(5.80676e-14 -5.67545e-14 0)
(7.55754e-14 -4.81465e-15 0)
(2.60283e-13 2.68016e-13 0)
(-8.89981e-14 -1.97692e-13 0)
(-9.37252e-13 1.90689e-13 0)
(4.31568e-13 7.33724e-13 0)
(-7.01188e-13 5.13563e-13 0)
(-1.51443e-13 1.16019e-12 0)
(3.2156e-13 8.30892e-13 0)
(4.61039e-14 1.6415e-12 0)
(-4.3186e-14 1.32286e-12 0)
(4.9693e-13 1.29324e-12 0)
(2.93256e-13 1.20279e-12 0)
(-7.38247e-13 1.26684e-12 0)
(5.45105e-13 -3.68267e-13 0)
(-5.77788e-13 -6.46948e-13 0)
(-7.00349e-14 -6.06678e-13 0)
(6.4082e-13 -9.40802e-13 0)
(-5.25262e-13 -5.4744e-13 0)
(-6.30314e-13 -5.39269e-13 0)
(-3.08737e-13 -2.09229e-13 0)
(4.39469e-13 -1.63123e-13 0)
(-2.24695e-13 -6.47531e-13 0)
(-6.51908e-13 -7.52e-13 0)
(9.28546e-13 -1.83112e-12 0)
(-2.50958e-14 -1.64465e-12 0)
(-9.53059e-13 -2.4877e-12 0)
(5.49774e-13 -1.98637e-12 0)
(-4.84992e-13 -3.27442e-12 0)
(-5.73703e-13 -2.47749e-12 0)
(-2.81891e-13 -3.14165e-12 0)
(-4.37718e-14 -3.16558e-12 0)
(1.97265e-13 -2.15591e-12 0)
(1.14974e-13 -2.25571e-12 0)
(2.92046e-12 -1.60001e-12 0)
(3.40224e-11 -2.24754e-12 0)
(2.64803e-10 -8.65807e-13 0)
(2.02713e-09 -1.32833e-12 0)
(1.58489e-08 -6.75253e-13 0)
(1.16529e-07 -2.18859e-14 0)
(7.28097e-07 4.42913e-12 0)
(4.04729e-06 7.31281e-13 0)
(2.1384e-05 5.35476e-13 0)
(0.000108254 1.29419e-11 0)
(0.000524974 -8.20721e-12 0)
(0.00243427 4.36008e-12 0)
(0.0107688 1.85725e-11 0)
(0.0453393 -2.62948e-11 0)
(0.181215 6.89202e-11 0)
(0.686222 3.86054e-11 0)
(2.46648 4.0693e-10 0)
(8.75768 -1.01152e-09 0)
(22.959 7.98759e-10 0)
(36.6652 1.39595e-09 0)
(52.0657 9.32007e-10 0)
(69.6747 4.83211e-10 0)
(88.9102 -1.87581e-09 0)
(109.216 -6.59994e-09 0)
(130.15 -1.38519e-08 0)
(151.395 3.19939e-10 0)
(172.596 -7.84539e-08 0)
(193.572 1.05832e-07 0)
(213.71 -1.56879e-07 0)
(232.832 -9.42689e-08 0)
(249.956 8.10252e-08 0)
(258.754 9.21128e-08 0)
(264.034 -3.45507e-07 0)
(268.486 -3.1123e-07 0)
(272.523 -4.09563e-07 0)
(272.993 -7.37522e-08 0)
(275.945 9.10463e-09 0)
(276.897 1.30348e-07 0)
(278.393 1.85404e-07 0)
(278.205 2.05238e-07 0)
(277.87 1.66667e-07 0)
(276.886 1.97342e-07 0)
(275.114 3.3892e-07 0)
(271.982 4.85901e-07 0)
(264.419 7.50321e-07 0)
(240.895 9.98785e-07 0)
(155.984 8.03862e-07 0)
(45.3531 2.37468e-07 0)
(8.4231 4.77931e-08 0)
(0.829245 4.44021e-09 0)
(0.0823055 3.85903e-10 0)
(0.00862057 3.60264e-11 0)
(0.000905688 1.15813e-11 0)
(9.51442e-05 3.95079e-12 0)
(9.98634e-06 6.07215e-12 0)
(1.04051e-06 2.53163e-12 0)
(1.01609e-07 2.00319e-13 0)
(8.7657e-09 1.65303e-13 0)
(7.3498e-10 3.25208e-13 0)
(6.44944e-11 -8.30163e-14 0)
(5.31508e-12 2.48465e-13 0)
(6.15108e-13 7.14903e-15 0)
(1.88501e-13 2.33438e-13 0)
(-3.77002e-13 -5.52955e-14 0)
(2.47152e-13 -4.25294e-13 0)
(-8.26077e-13 -2.42921e-13 0)
(5.88846e-13 -1.74349e-13 0)
(9.28206e-13 -1.05047e-13 0)
(-1.80331e-13 4.37696e-15 0)
(-5.43034e-13 -2.91359e-13 0)
(1.3338e-12 -1.03442e-13 0)
(9.67307e-13 -1.67637e-13 0)
(1.33351e-13 -5.37052e-13 0)
(3.26521e-13 -2.48027e-14 0)
(1.31425e-12 -2.04404e-13 0)
(8.64011e-13 6.67048e-13 0)
(-6.18026e-13 -1.36999e-13 0)
(1.88501e-13 1.5191e-12 0)
(2.9384e-13 4.20917e-13 0)
(-2.44818e-13 1.1418e-12 0)
(-4.42387e-13 -9.05201e-13 0)
(-4.96664e-13 -1.01492e-12 0)
(-7.1494e-13 -1.55769e-12 0)
(1.95514e-13 -1.01346e-12 0)
(-7.00933e-13 -2.2738e-12 0)
(-5.07753e-13 -1.52384e-12 0)
(7.00349e-15 -1.8177e-12 0)
(-7.52292e-13 -1.17892e-12 0)
(9.04618e-13 -1.67062e-12 0)
(-5.13589e-14 3.29748e-14 0)
(1.4112e-12 -4.57853e-13 0)
(2.66133e-13 -5.73411e-13 0)
(4.72736e-14 -2.31991e-13 0)
(9.1629e-14 -3.25954e-13 0)
(-2.11272e-13 -5.36059e-13 0)
(2.44539e-13 6.56577e-14 0)
(-1.2974e-12 -2.18859e-13 0)
(9.91578e-13 2.13898e-13 0)
(-1.41821e-13 -6.2156e-13 0)
(3.29748e-13 2.10688e-13 0)
(3.63598e-12 -5.72536e-13 0)
(3.34207e-11 2.23236e-13 0)
(2.66804e-10 -6.67083e-13 0)
(2.02435e-09 1.05052e-14 0)
(1.58514e-08 -3.09321e-13 0)
(1.16531e-07 -1.92071e-12 0)
(7.28115e-07 -1.69485e-12 0)
(4.04734e-06 7.43742e-12 0)
(2.1384e-05 -1.497e-11 0)
(0.000108254 -1.70097e-12 0)
(0.000524974 8.76454e-12 0)
(0.00243427 -1.81218e-11 0)
(0.0107688 -1.66631e-11 0)
(0.0453393 -6.43047e-12 0)
(0.181215 -1.4396e-10 0)
(0.686222 -3.79599e-10 0)
(2.46648 -8.6294e-10 0)
(8.75768 -1.78659e-09 0)
(22.959 -8.20219e-10 0)
(36.6652 2.08863e-09 0)
(52.0657 7.06936e-09 0)
(69.6747 1.08807e-08 0)
(88.9102 1.03208e-08 0)
(109.216 4.98868e-09 0)
(130.15 -6.53174e-09 0)
(151.395 -2.35458e-08 0)
(172.596 -2.79157e-08 0)
(193.572 -5.7259e-08 0)
(213.71 -7.84706e-08 0)
(232.832 -3.25659e-09 0)
(249.956 -2.17439e-07 0)
(258.754 4.47826e-08 0)
(264.034 -3.0433e-08 0)
(268.486 -5.10073e-08 0)
(272.523 1.15806e-07 0)
(272.993 -7.67331e-08 0)
(275.945 -1.07857e-07 0)
(276.897 -4.56488e-08 0)
(278.393 -5.46673e-08 0)
(278.205 2.66174e-08 0)
(277.87 1.63133e-07 0)
(276.886 3.17472e-07 0)
(275.114 2.73594e-07 0)
(271.982 6.6589e-08 0)
(264.419 4.64858e-08 0)
(240.895 -6.41064e-08 0)
(155.984 -1.51007e-07 0)
(45.3531 -4.71741e-08 0)
(8.4231 -6.82969e-09 0)
(0.829245 -1.98356e-10 0)
(0.0823055 5.55485e-12 0)
(0.00862057 3.6688e-12 0)
(0.000905688 6.28104e-13 0)
(9.51442e-05 -8.36435e-13 0)
(9.98632e-06 4.14687e-12 0)
(1.04051e-06 -4.47325e-13 0)
(1.01605e-07 9.84086e-13 0)
(8.7666e-09 7.38538e-13 0)
(7.34096e-10 8.54965e-14 0)
(6.49634e-11 9.1741e-13 0)
(5.67458e-12 2.30082e-13 0)
(1.45315e-13 1.01983e-12 0)
(7.11693e-13 5.98768e-13 0)
(-1.61247e-12 4.67897e-13 0)
(3.0697e-13 4.42656e-13 0)
(-1.24889e-13 5.35448e-13 0)
(-1.69826e-13 1.72598e-13 0)
(1.99881e-13 1.88647e-13 0)
(3.99762e-14 -4.82341e-13 0)
(-3.46363e-13 5.30195e-13 0)
(-7.0469e-13 -2.97925e-13 0)
(-5.57916e-13 -3.72625e-13 0)
(-1.9317e-13 -4.35215e-13 0)
(8.00399e-13 -7.40727e-13 0)
(1.73415e-12 -3.32649e-13 0)
(2.3227e-13 -6.94039e-13 0)
(1.15289e-12 -3.6285e-13 0)
(1.28828e-12 -3.1018e-13 0)
(-6.99437e-13 -7.25991e-13 0)
(4.87009e-13 -5.64919e-13 0)
(1.69835e-13 -1.42434e-12 0)
(-1.46723e-12 -8.14156e-14 0)
(-1.4649e-13 -8.54718e-13 0)
(-8.71351e-13 1.90553e-13 0)
(-8.85358e-13 -9.02867e-13 0)
(-2.91812e-14 3.52217e-13 0)
(2.18276e-13 -3.88986e-13 0)
(2.11272e-13 -4.52309e-13 0)
(1.83492e-12 2.35201e-13 0)
(1.32249e-12 -4.08245e-13 0)
(-5.5561e-13 5.83333e-13 0)
(4.72736e-13 -1.94639e-13 0)
(-2.77222e-13 4.47056e-13 0)
(-6.09304e-13 2.20026e-13 0)
(1.05694e-12 7.20776e-14 0)
(5.95297e-14 1.02718e-13 0)
(-7.6805e-13 1.15558e-13 0)
(-7.68633e-13 4.81782e-13 0)
(5.27013e-13 -4.35676e-13 0)
(7.10854e-13 5.16799e-13 0)
(3.02434e-12 -3.89861e-13 0)
(3.40994e-11 4.63981e-14 0)
(2.64229e-10 -1.55536e-13 0)
(2.02828e-09 -6.04927e-13 0)
(1.58464e-08 -1.79173e-13 0)
(1.16523e-07 -2.60442e-12 0)
(7.28097e-07 -9.94204e-12 0)
(4.04732e-06 -1.42183e-11 0)
(2.1384e-05 -1.12476e-11 0)
(0.000108254 -7.19113e-12 0)
(0.000524974 -1.60415e-11 0)
(0.00243427 -6.80457e-12 0)
(0.0107688 -2.00728e-11 0)
(0.0453393 2.72067e-12 0)
(0.181215 -3.45778e-11 0)
(0.686222 3.96626e-11 0)
(2.46648 -3.09251e-10 0)
(8.75768 7.57549e-10 0)
(22.959 1.18586e-10 0)
(36.6652 -5.96536e-10 0)
(52.0657 -4.5999e-10 0)
(69.6747 -1.11497e-09 0)
(88.9102 -3.02828e-09 0)
(109.216 -3.91203e-09 0)
(130.15 -5.04988e-09 0)
(151.395 -1.24721e-08 0)
(172.596 -1.1728e-09 0)
(193.572 -1.9334e-08 0)
(213.71 -5.35446e-08 0)
(232.832 1.12493e-07 0)
(249.956 -8.3425e-08 0)
(258.754 -1.86736e-07 0)
(264.034 1.04943e-07 0)
(268.486 1.61326e-07 0)
(272.523 1.89045e-07 0)
(272.993 -2.51155e-08 0)
(275.945 -7.63496e-08 0)
(276.897 -1.57737e-07 0)
(278.393 -1.4422e-07 0)
(278.205 -1.39803e-07 0)
(277.87 -1.24142e-07 0)
(276.886 -5.34002e-08 0)
(275.114 4.57572e-08 0)
(271.982 5.96557e-08 0)
(264.419 2.3223e-08 0)
(240.895 -1.06766e-07 0)
(155.984 -1.27029e-07 0)
(45.3531 -2.3528e-08 0)
(8.4231 -3.34305e-09 0)
(0.829245 2.58003e-11 0)
(0.0823055 1.48467e-11 0)
(0.00862057 3.11558e-13 0)
(0.000905688 -1.43241e-11 0)
(9.51443e-05 2.69613e-13 0)
(9.98631e-06 -8.15077e-12 0)
(1.04051e-06 -3.98682e-12 0)
(1.01614e-07 -7.06149e-13 0)
(8.76263e-09 1.23226e-12 0)
(7.35813e-10 4.08516e-13 0)
(6.45753e-11 1.20133e-12 0)
(5.32442e-12 3.735e-13 0)
(1.98334e-12 1.28493e-12 0)
(-1.679e-12 1.02421e-12 0)
(-4.65416e-13 8.85166e-13 0)
(5.50621e-13 1.48204e-12 0)
(-1.37495e-12 1.22102e-12 0)
(-9.60012e-14 1.32782e-12 0)
(-4.8555e-13 9.99113e-13 0)
(4.00346e-13 6.28969e-13 0)
(9.30833e-14 5.53685e-13 0)
(-4.25732e-13 9.02091e-13 0)
(6.32324e-13 1.04638e-12 0)
(-9.66724e-13 8.11488e-13 0)
(4.44115e-13 4.12455e-13 0)
(1.62764e-12 7.93396e-13 0)
(3.44904e-13 -3.74813e-13 0)
(5.77175e-13 3.00989e-13 0)
(2.68745e-13 -8.66783e-13 0)
(-3.41694e-13 1.06652e-13 0)
(-4.61915e-13 -6.02999e-13 0)
(1.37093e-12 -2.38994e-13 0)
(-2.10105e-13 1.90262e-13 0)
(3.34417e-13 -4.669e-15 0)
(-1.57579e-14 1.35984e-13 0)
(-8.8244e-13 -1.53201e-13 0)
(7.91978e-13 8.75437e-14 0)
(-1.91954e-12 6.06969e-14 0)
(8.85358e-13 -6.59787e-13 0)
(9.05201e-13 1.85009e-13 0)
(1.26822e-12 -1.18271e-12 0)
(1.09138e-12 1.56995e-13 0)
(-4.84408e-14 -3.82566e-13 0)
(1.0762e-12 -3.21869e-13 0)
(-5.30501e-13 -6.69709e-13 2.13095e-33)
(-6.00563e-13 -2.27905e-13 0)
(-9.22127e-14 -1.49991e-13 0)
(1.79756e-13 -1.19935e-13 0)
(5.31098e-14 3.34709e-13 0)
(-1.03302e-13 4.09996e-13 0)
(2.34617e-13 -1.10305e-13 0)
(1.67208e-12 8.14156e-14 0)
(3.56484e-11 -8.17074e-14 0)
(2.64e-10 7.44121e-14 0)
(2.02453e-09 -4.86743e-13 0)
(1.58512e-08 -6.94513e-14 0)
(1.16518e-07 1.12931e-13 0)
(7.28091e-07 -7.24861e-13 0)
(4.04732e-06 -1.24429e-12 0)
(2.1384e-05 -1.05665e-12 0)
(0.000108254 1.75554e-12 0)
(0.000524974 -4.67306e-12 0)
(0.00243427 1.23714e-11 2.13095e-33)
(0.0107688 1.53037e-11 0)
(0.0453393 5.82077e-11 0)
(0.181215 3.0576e-10 0)
(0.686222 5.74296e-10 0)
(2.46648 2.42024e-09 -2.12395e-33)
(8.75768 3.64216e-09 0)
(22.959 5.73248e-09 0)
(36.6652 1.26096e-09 2.02187e-33)
(52.0657 -6.39015e-09 0)
(69.6747 -1.75691e-08 0)
(88.9102 -2.47682e-08 0)
(109.216 -2.79447e-08 -1.84956e-33)
(130.15 -2.90182e-08 0)
(151.395 -1.51925e-08 0)
(172.596 -4.43137e-08 0)
(193.572 1.8303e-08 0)
(213.71 -5.42961e-08 0)
(232.832 -3.65556e-08 0)
(249.956 7.79368e-09 0)
(258.754 -2.22158e-08 0)
(264.034 -9.88394e-08 0)
(268.486 -6.82564e-08 0)
(272.523 -1.65757e-07 0)
(272.993 4.96264e-08 -8.52598e-34)
(275.945 7.51986e-08 8.8699e-34)
(276.897 6.0676e-08 0)
(278.393 5.11734e-08 0)
(278.205 2.73645e-08 -1.02924e-33)
(277.87 -4.74135e-08 0)
(276.886 -1.41258e-07 0)
(275.114 -3.37783e-07 0)
(271.982 -3.56926e-07 0)
(264.419 -3.02116e-07 0)
(240.895 -1.2463e-07 0)
(155.984 -4.88302e-08 0)
(45.3531 -1.70185e-08 0)
(8.4231 -9.72453e-09 0)
(0.829245 -1.82572e-09 0)
(0.0823055 -2.01788e-10 0)
(0.00862057 -8.712e-12 8.52348e-34)
(0.000905688 -7.62652e-12 0)
(9.51442e-05 -3.99208e-12 0)
(9.98634e-06 -5.75511e-12 0)
(1.04052e-06 -1.49794e-12 0)
(1.01613e-07 1.46847e-12 0)
(8.76486e-09 -2.00027e-13 0)
(7.3626e-10 1.53806e-12 0)
(6.37554e-11 2.85232e-13 0)
(6.20133e-12 1.17755e-12 0)
(7.58431e-13 7.09942e-13 0)
(1.28455e-13 6.86161e-13 0)
(1.10641e-13 1.67448e-12 0)
(5.8715e-14 1.29208e-12 0)
(-5.60478e-13 1.25765e-12 0)
(-2.59941e-13 1.42835e-12 0)
(-4.39674e-13 1.07279e-12 0)
(-7.51676e-13 1.49721e-12 0)
(-3.36321e-13 7.54004e-13 0)
(8.00732e-14 1.24408e-12 0)
(-1.1477e-12 5.39679e-13 -8.52337e-34)
(-9.80025e-13 4.81027e-13 0)
(8.97881e-13 5.10207e-13 -8.52337e-34)
(4.70716e-14 4.00054e-13 0)
(-4.37867e-13 -8.09737e-14 0)
(-2.70123e-14 -2.3621e-13 0)
(9.14161e-13 -8.17032e-15 0)
(8.79557e-14 -2.55322e-13 0)
(-6.33783e-13 2.93402e-13 0)
(1.17425e-12 1.57228e-12 0)
(-7.28947e-13 5.12714e-13 0)
(-6.92762e-13 9.41094e-13 0)
(-8.08903e-13 1.27814e-13 0)
(-9.57728e-13 3.26246e-13 0)
(2.44539e-13 -4.00658e-13 0)
(-1.41295e-12 -3.47257e-13 0)
(9.15707e-13 1.36568e-13 0)
(5.10671e-13 -1.17017e-13 0)
(1.82383e-12 -2.77222e-14 0)
(6.77004e-13 8.43337e-14 0)
(-4.59896e-13 -1.23437e-13 0)
(-5.32265e-13 -3.39378e-13 0)
(5.84792e-13 -4.49974e-13 -2.13095e-33)
(6.27396e-13 8.37501e-14 0)
(5.13589e-14 1.53785e-13 0)
(4.7507e-13 -1.03593e-13 0)
(2.4804e-13 3.96865e-14 0)
(-5.99966e-13 -1.63415e-13 0)
(1.30148e-13 -3.57762e-13 0)
(3.04535e-12 9.1629e-14 0)
(3.51587e-11 -4.0095e-13 0)
(2.62421e-10 -8.56761e-13 0)
(2.02717e-09 -1.48824e-13 0)
(1.58489e-08 -2.64965e-13 0)
(1.16521e-07 -1.54369e-13 0)
(7.2809e-07 -2.30561e-12 0)
(4.04733e-06 -7.38664e-12 0)
(2.1384e-05 2.16326e-11 0)
(0.000108254 -2.00338e-11 0)
(0.000524974 1.82529e-12 0)
(0.00243427 4.02373e-12 -2.13095e-33)
(0.0107688 -4.77277e-12 0)
(0.0453393 1.32792e-11 0)
(0.181215 -4.17458e-11 0)
(0.686222 1.1161e-10 0)
(2.46648 -2.75457e-10 2.12395e-33)
(8.75768 3.62123e-10 0)
(22.959 1.04435e-09 0)
(36.6652 1.58271e-09 -2.02187e-33)
(52.0657 2.0323e-09 0)
(69.6747 1.79267e-09 0)
(88.9102 1.22946e-09 0)
(109.216 -7.67623e-11 1.84956e-33)
(130.15 -2.11376e-09 0)
(151.395 2.76779e-09 0)
(172.596 -1.86322e-08 0)
(193.572 2.00911e-08 0)
(213.71 -1.07885e-08 0)
(232.832 -4.17251e-08 0)
(249.956 -1.30705e-08 0)
(258.754 5.07392e-08 0)
(264.034 -4.70258e-08 0)
(268.486 -1.40095e-07 0)
(272.523 -1.49235e-07 0)
(272.993 -9.96907e-08 8.52598e-34)
(275.945 -8.46918e-08 -8.8699e-34)
(276.897 8.3294e-08 0)
(278.393 1.46019e-07 0)
(278.205 2.26857e-07 1.02924e-33)
(277.87 2.42699e-07 0)
(276.886 1.6868e-07 0)
(275.114 -1.04511e-08 0)
(271.982 -6.83647e-08 0)
(264.419 -2.43655e-07 0)
(240.895 -2.48433e-07 0)
(155.984 -2.40471e-07 0)
(45.3531 -9.00526e-08 0)
(8.4231 -2.03658e-08 0)
(0.829245 -3.62803e-09 0)
(0.0823055 -3.84913e-10 0)
(0.00862057 -3.24804e-11 -8.52348e-34)
(0.000905688 -1.76312e-12 0)
(9.51442e-05 -2.44526e-12 0)
(9.98633e-06 5.18523e-13 0)
(1.04052e-06 3.79336e-13 0)
(1.01611e-07 6.26926e-13 0)
(8.76629e-09 3.99762e-13 0)
(7.35268e-10 5.92056e-13 0)
(6.43305e-11 4.1975e-13 0)
(6.52079e-12 6.17297e-13 0)
(9.68474e-13 2.62909e-13 0)
(4.45866e-13 -5.15022e-14 0)
(1.45315e-13 4.96055e-15 0)
(2.30228e-13 -5.04371e-13 0)
(-5.31071e-13 -1.9317e-13 0)
(-6.25613e-13 -4.84383e-14 0)
(-7.50794e-13 5.98184e-15 0)
(-4.81173e-13 3.25645e-13 0)
(6.97395e-14 2.19869e-13 0)
(-5.30195e-13 3.35567e-14 0)
(-4.52577e-13 1.60634e-13 8.52337e-34)
(-1.11963e-12 2.16076e-13 0)
(2.36356e-14 1.88939e-13 8.52337e-34)
(4.65124e-13 2.05279e-13 0)
(-5.05976e-13 1.05047e-13 0)
(5.1473e-13 4.08516e-14 0)
(1.2985e-13 2.56781e-13 0)
(-1.5261e-13 -1.82665e-13 0)
(8.5905e-13 1.28682e-13 0)
(-3.30331e-13 6.14265e-13 0)
(-5.57945e-13 -8.86817e-13 0)
(-6.79922e-13 1.33037e-12 0)
(-1.48241e-12 -6.66499e-13 0)
(-1.73512e-12 1.16346e-12 0)
(-2.66716e-13 -4.01825e-13 0)
(-6.28563e-13 5.39561e-13 0)
(9.63564e-13 3.2041e-13 0)
(3.77021e-13 -2.77222e-14 0)
(1.99016e-12 4.98123e-13 0)
(7.70968e-13 -3.65641e-13 0)
(-9.38468e-13 3.79648e-13 0)
(3.15157e-13 -2.89186e-13 0)
(-1.996e-13 6.96556e-13 0)
(9.06369e-13 -2.31699e-13 0)
(-1.675e-13 -1.28397e-13 0)
(-2.10688e-13 -3.11947e-13 0)
(1.23728e-13 -7.38285e-13 0)
(-1.08904e-12 1.42404e-13 0)
(7.26612e-13 -6.14556e-13 0)
(3.03893e-12 3.79356e-13 0)
(3.22779e-11 -3.20118e-13 0)
(2.64736e-10 4.81198e-13 0)
(2.0258e-09 4.01534e-13 0)
(1.58507e-08 -2.59421e-13 0)
(1.16515e-07 1.72811e-12 0)
(7.28077e-07 6.95797e-12 0)
(4.04732e-06 1.31114e-11 0)
(2.1384e-05 6.82432e-12 0)
(0.000108254 1.13322e-11 0)
(0.000524974 7.98514e-12 0)
(0.00243427 -1.16654e-12 0)
(0.0107688 1.51913e-11 0)
(0.0453393 -4.27219e-11 0)
(0.181215 -7.5821e-11 0)
(0.686222 -3.38448e-10 0)
(2.46648 -8.42902e-10 0)
(8.75768 -1.29688e-09 0)
(22.959 -2.06239e-09 0)
(36.6652 4.19828e-09 0)
(52.0657 1.07089e-08 0)
(69.6747 1.75581e-08 0)
(88.9102 2.10365e-08 0)
(109.216 2.07694e-08 0)
(130.15 2.21262e-08 0)
(151.395 6.16854e-09 0)
(172.596 4.14754e-08 0)
(193.572 -6.01553e-09 0)
(213.71 2.69515e-08 0)
(232.832 6.60623e-08 0)
(249.956 1.27257e-07 0)
(258.754 1.17627e-08 0)
(264.034 1.64569e-07 0)
(268.486 2.02658e-07 0)
(272.523 2.84513e-07 0)
(272.993 1.8291e-07 0)
(275.945 1.89248e-07 0)
(276.897 1.7275e-07 0)
(278.393 1.80393e-07 0)
(278.205 1.86065e-07 0)
(277.87 2.96741e-07 0)
(276.886 3.95061e-07 0)
(275.114 6.15967e-07 0)
(271.982 7.26901e-07 0)
(264.419 6.66875e-07 0)
(240.895 4.49638e-07 0)
(155.984 2.04564e-07 0)
(45.3531 3.98973e-08 0)
(8.4231 1.02021e-08 0)
(0.829245 1.04782e-09 0)
(0.0823055 9.39212e-11 0)
(0.00862057 1.18194e-11 0)
(0.000905688 7.83519e-12 0)
(9.51442e-05 1.17696e-11 0)
(9.98634e-06 5.77612e-12 0)
(1.04052e-06 3.93809e-12 0)
(1.01612e-07 -7.02355e-13 0)
(8.76522e-09 -7.18258e-13 0)
(7.35167e-10 -1.17711e-12 0)
(6.45117e-11 -1.49065e-12 0)
(5.9903e-12 -9.76061e-13 0)
(-6.65005e-13 -1.63684e-12 0)
(-3.88382e-13 -1.31863e-12 0)
(-1.32593e-12 -1.76873e-12 0)
(-5.25818e-13 -2.33058e-12 0)
(7.13152e-13 -1.72656e-12 0)
(4.5462e-13 -2.0045e-12 0)
(9.04571e-14 -1.33249e-12 0)
(-5.47995e-13 -1.93549e-12 0)
(-2.44234e-13 -9.50675e-13 0)
(-1.98422e-13 -1.3786e-12 0)
(-6.54501e-13 -1.17667e-12 0)
(-1.13246e-12 -8.82686e-13 0)
(7.14319e-13 -4.87009e-13 0)
(1.32476e-13 -1.07848e-12 0)
(-8.12071e-13 3.54679e-13 0)
(7.65675e-13 -5.46536e-13 0)
(1.672e-13 6.30573e-13 0)
(-8.95817e-14 8.40375e-14 0)
(3.7671e-13 5.3428e-13 0)
(-1.31024e-12 1.66041e-13 0)
(3.37919e-13 6.43446e-13 0)
(-3.22744e-13 7.12897e-13 0)
(-5.64365e-13 1.02835e-12 0)
(-5.22927e-13 1.77334e-12 0)
(-8.37501e-13 2.02634e-12 0)
(2.24695e-13 1.8924e-12 0)
(-4.35384e-13 1.9315e-12 0)
(1.20577e-12 1.33738e-12 0)
(-1.75671e-13 1.09692e-12 0)
(1.20635e-12 -2.09813e-13 0)
(-3.67683e-13 7.87601e-13 0)
(-1.01551e-13 1.98724e-13 0)
(1.47073e-13 1.32775e-13 0)
(-4.42971e-13 2.5125e-13 0)
(1.30148e-13 -4.62814e-13 0)
(-1.0441e-12 1.69251e-13 0)
(1.04469e-12 -4.62522e-13 0)
(-1.79173e-13 4.73319e-13 0)
(3.89277e-13 5.13589e-13 0)
(4.0737e-12 1.55536e-13 0)
(3.34417e-11 8.61721e-13 0)
(2.66535e-10 5.86251e-13 0)
(2.02566e-09 1.4468e-12 0)
(1.58491e-08 5.32849e-13 0)
(1.16536e-07 5.70172e-12 0)
(7.28115e-07 8.95718e-12 0)
(4.04734e-06 6.5684e-12 0)
(2.1384e-05 -1.78455e-11 0)
(0.000108254 4.10314e-11 0)
(0.000524974 -1.77541e-11 0)
(0.00243427 1.37066e-11 0)
(0.0107688 2.4605e-11 0)
(0.0453393 -2.17483e-11 0)
(0.181215 5.47314e-11 0)
(0.686222 -1.10564e-10 0)
(2.46648 5.83393e-10 0)
(8.75768 1.15968e-09 0)
(22.959 3.54121e-09 0)
(36.6652 4.7991e-09 0)
(52.0657 7.12879e-09 0)
(69.6747 1.31226e-08 0)
(88.9102 2.21368e-08 0)
(109.216 3.46597e-08 0)
(130.15 4.57185e-08 0)
(151.395 6.78224e-08 0)
(172.596 6.78378e-08 0)
(193.572 1.0405e-07 0)
(213.71 1.16946e-07 0)
(232.832 1.4404e-07 0)
(249.956 1.01701e-07 0)
(258.754 7.2502e-08 0)
(264.034 5.45716e-08 0)
(268.486 1.10992e-07 0)
(272.523 1.17647e-07 0)
(272.993 8.6285e-08 0)
(275.945 7.70643e-08 0)
(276.897 6.30541e-08 0)
(278.393 7.7748e-08 0)
(278.205 9.08126e-08 0)
(277.87 1.02224e-07 0)
(276.886 1.31308e-07 0)
(275.114 2.68274e-07 0)
(271.982 2.87122e-07 0)
(264.419 4.11901e-07 0)
(240.895 4.11124e-07 0)
(155.984 4.06328e-07 0)
(45.3531 1.51427e-07 0)
(8.4231 2.60315e-08 0)
(0.829245 3.06926e-09 0)
(0.0823055 3.65716e-10 0)
(0.00862057 2.17424e-11 0)
(0.000905688 1.14406e-11 0)
(9.51442e-05 3.84739e-13 0)
(9.98632e-06 4.1263e-12 0)
(1.0405e-06 2.71123e-12 0)
(1.01605e-07 -1.33366e-12 0)
(8.76615e-09 -6.74781e-13 0)
(7.34203e-10 -1.0922e-12 0)
(6.43515e-11 -1.02377e-12 0)
(5.56982e-12 -1.53179e-12 0)
(5.89722e-13 -1.70512e-12 0)
(4.61915e-13 -1.17419e-12 0)
(-1.17886e-12 -1.50713e-12 0)
(2.68453e-13 -4.94012e-13 0)
(-2.06884e-13 -9.77228e-13 0)
(-5.51788e-13 -9.72705e-13 0)
(-5.83594e-14 -1.34445e-12 0)
(6.35826e-13 -3.01864e-13 0)
(2.97341e-13 -3.89111e-13 0)
(-1.11437e-12 7.29493e-16 0)
(1.42981e-14 -6.43412e-14 0)
(1.86458e-13 5.9264e-13 0)
(1.53777e-13 4.76796e-13 0)
(1.75487e-12 3.68686e-13 0)
(3.67372e-13 8.41689e-13 0)
(1.04843e-12 1.14166e-12 0)
(8.70431e-13 4.02826e-13 0)
(2.73414e-13 7.42332e-13 0)
(1.58066e-12 7.74283e-13 0)
(6.65915e-13 7.96647e-13 0)
(1.94931e-13 2.06136e-12 0)
(3.52509e-13 4.82657e-13 0)
(1.76838e-13 1.60497e-12 0)
(-1.54077e-13 6.69417e-13 0)
(-3.29164e-13 1.04264e-12 0)
(-7.91395e-13 1.42959e-12 0)
(3.25079e-13 9.42262e-13 0)
(-1.01317e-12 1.34234e-12 0)
(-8.15907e-13 8.50049e-13 0)
(7.2953e-14 1.29273e-12 0)
(-4.44722e-13 8.01024e-13 0)
(-4.07953e-13 1.42375e-12 0)
(2.94147e-13 1.09517e-12 0)
(-9.80489e-14 2.07012e-12 0)
(-3.2683e-13 1.73978e-12 0)
(-1.96098e-13 2.08938e-12 0)
(3.20993e-13 2.11301e-12 0)
(1.333e-12 1.46519e-12 0)
(3.56011e-14 2.08762e-12 0)
(2.6374e-12 1.41704e-12 0)
(3.4023e-11 2.10572e-12 0)
(2.64562e-10 1.20139e-12 0)
(2.02864e-09 1.49816e-12 0)
(1.58478e-08 1.10422e-12 0)
(1.16538e-07 -1.09021e-12 0)
(7.28092e-07 -6.35363e-12 0)
(4.0473e-06 -2.34208e-12 0)
(2.1384e-05 -2.32575e-13 0)
(0.000108254 -1.2758e-11 0)
(0.000524974 1.92071e-12 0)
(0.00243427 9.1469e-13 0)
(0.0107688 -1.04897e-11 0)
(0.0453393 1.38064e-10 0)
(0.181215 2.68959e-10 0)
(0.686222 1.38874e-09 0)
(2.46648 2.83301e-09 0)
(8.75768 9.28797e-09 0)
(22.959 1.6304e-08 0)
(36.6652 2.04933e-08 0)
(52.0657 2.22015e-08 0)
(69.6747 2.29676e-08 0)
(88.9102 2.40372e-08 0)
(109.216 2.64664e-08 0)
(130.15 3.45872e-08 0)
(151.395 5.91217e-08 0)
(172.596 4.44336e-08 0)
(193.572 1.58762e-07 0)
(213.71 4.1254e-08 0)
(232.832 -5.0409e-09 0)
(249.956 1.30851e-07 0)
(258.754 1.77021e-07 0)
(264.034 -4.63452e-07 0)
(268.486 -4.39123e-07 0)
(272.523 -5.7519e-07 0)
(272.993 -1.79418e-07 0)
(275.945 -1.82069e-07 0)
(276.897 -8.15108e-08 0)
(278.393 4.43186e-08 0)
(278.205 1.45093e-07 0)
(277.87 2.16089e-07 0)
(276.886 3.61418e-07 0)
(275.114 6.11437e-07 0)
(271.982 9.37652e-07 0)
(264.419 1.42246e-06 0)
(240.895 1.69727e-06 0)
(155.984 1.06357e-06 0)
(45.3531 2.97215e-07 0)
(8.4231 5.58633e-08 0)
(0.829245 1.62733e-09 0)
(0.0823055 5.20596e-11 0)
(0.00862057 -6.93482e-14 0)
(0.000905688 -1.88545e-12 0)
(9.51442e-05 -8.64667e-12 0)
(9.98634e-06 -4.3202e-12 0)
(1.0405e-06 -2.96116e-12 0)
(1.01612e-07 -7.87123e-13 0)
(8.76516e-09 1.22555e-13 0)
(7.34636e-10 -2.11699e-13 0)
(6.33287e-11 6.12774e-14 0)
(5.16131e-12 -2.25705e-13 0)
(5.54414e-14 -7.26575e-14 0)
(-6.79887e-14 -2.14033e-13 0)
(-4.14352e-13 2.78666e-14 0)
(3.48114e-13 1.14968e-13 0)
(-3.0697e-13 -2.6962e-13 0)
(7.00313e-15 4.25586e-13 0)
(7.57213e-13 -2.65535e-14 0)
(1.19987e-12 1.3481e-13 0)
(4.04722e-13 -1.42981e-13 0)
(5.46536e-13 -3.64746e-15 0)
(1.06243e-12 1.23284e-13 0)
(3.06387e-14 7.32411e-14 0)
(-3.50156e-14 -5.76299e-14 0)
(9.75186e-13 8.27245e-14 0)
(4.74754e-13 -1.19549e-12 0)
(-6.70258e-13 -1.62969e-13 0)
(-4.41781e-13 -2.18147e-12 0)
(2.97633e-13 -5.88117e-13 0)
(-7.09067e-14 -1.84503e-12 0)
(2.00183e-13 8.5822e-13 0)
(-2.58546e-13 4.14373e-13 0)
(-1.14916e-12 4.36551e-13 0)
(-1.27814e-13 -8.75437e-16 0)
(-1.80398e-12 2.04269e-15 0)
(5.86543e-13 -5.60279e-13 0)
(4.49391e-13 2.99983e-13 0)
(-9.06952e-13 -8.25828e-14 0)
(4.40636e-13 -5.54443e-15 0)
(4.19042e-13 3.80523e-13 0)
(1.31432e-12 8.85942e-13 0)
(1.90845e-13 9.55393e-13 0)
(2.53293e-13 1.28193e-12 0)
(7.89644e-13 1.53055e-12 0)
(9.58311e-13 1.23203e-12 0)
(2.63215e-13 2.10542e-12 0)
(-6.16891e-13 1.63035e-12 0)
(-2.00767e-13 1.69893e-12 0)
(-1.41237e-13 1.32716e-12 0)
(3.44922e-13 1.07474e-12 0)
(4.81548e-12 1.73424e-12 0)
(3.30057e-11 1.45147e-12 0)
(2.63461e-10 1.67646e-12 0)
(2.02686e-09 8.91194e-13 0)
(1.58481e-08 1.13106e-12 0)
(1.16522e-07 -2.09492e-12 0)
(7.28102e-07 -1.01317e-12 0)
(4.04734e-06 4.4869e-12 0)
(2.1384e-05 8.92741e-12 0)
(0.000108254 -1.58527e-11 0)
(0.000524974 3.14596e-11 0)
(0.00243427 -7.88851e-12 0)
(0.0107688 1.03672e-11 0)
(0.0453393 5.64439e-11 0)
(0.181215 8.55911e-11 0)
(0.686222 3.53246e-10 0)
(2.46648 1.04089e-09 0)
(8.75768 2.69426e-09 0)
(22.959 8.27579e-09 0)
(36.6652 1.43332e-08 0)
(52.0657 1.71859e-08 0)
(69.6747 2.0218e-08 0)
(88.9102 2.4309e-08 0)
(109.216 3.03607e-08 0)
(130.15 3.63079e-08 0)
(151.395 5.91435e-08 0)
(172.596 2.857e-08 0)
(193.572 1.34677e-07 0)
(213.71 4.79521e-08 0)
(232.832 8.85559e-08 0)
(249.956 1.06691e-07 0)
(258.754 1.97083e-07 0)
(264.034 -5.62594e-08 0)
(268.486 -3.28412e-08 0)
(272.523 -1.46333e-07 0)
(272.993 -6.83906e-08 0)
(275.945 -8.08941e-08 0)
(276.897 -5.53666e-08 0)
(278.393 2.69562e-08 0)
(278.205 7.76079e-08 0)
(277.87 1.52557e-07 0)
(276.886 3.02742e-07 0)
(275.114 5.12095e-07 0)
(271.982 6.50628e-07 0)
(264.419 7.13787e-07 0)
(240.895 6.72763e-07 0)
(155.984 3.48686e-07 0)
(45.3531 9.35759e-08 0)
(8.4231 1.37553e-08 0)
(0.829245 8.21065e-11 0)
(0.0823055 -7.94931e-12 0)
(0.00862057 2.03798e-12 0)
(0.000905688 -5.90144e-13 0)
(9.51442e-05 -7.50064e-13 0)
(9.98633e-06 -8.61239e-13 0)
(1.04051e-06 -1.19783e-12 0)
(1.0161e-07 6.71133e-14 0)
(8.76537e-09 -4.49222e-13 0)
(7.34783e-10 -2.80271e-13 0)
(6.44454e-11 -2.16659e-13 0)
(5.18144e-12 7.54295e-14 0)
(5.33697e-13 -1.70701e-14 0)
(4.52869e-13 3.31481e-13 0)
(-4.85258e-13 2.64076e-13 0)
(-1.6399e-13 1.79747e-13 0)
(2.3227e-13 1.56695e-13 0)
(-2.33729e-13 2.9063e-13 0)
(-2.95882e-13 -2.85961e-14 0)
(8.67221e-13 -1.6647e-13 0)
(-1.33351e-13 -1.38312e-13 0)
(-5.54414e-13 -5.62001e-13 0)
(1.16719e-14 -5.98476e-13 0)
(-2.07176e-13 -1.11758e-12 0)
(1.13801e-14 -8.22284e-13 0)
(-5.74548e-13 -1.12867e-12 0)
(1.7216e-13 -1.54871e-12 0)
(-3.91008e-14 -1.34052e-12 0)
(2.45401e-13 -9.57094e-13 0)
(9.7752e-13 -9.42942e-13 0)
(-3.00259e-13 -7.7866e-13 0)
)
;

boundaryField
{
    sides1
    {
        type            zeroGradient;
    }
    sides2
    {
        type            zeroGradient;
    }
    empty
    {
        type            empty;
    }
}


// ************************************************************************* //
